512
step:0 columns:id,pos dt:0.01 cell:9.485048811973503,9.485048811973503,9.485048811973503 
1 -1.197767 1.038843 0.613486
1 0.966869 -4.556971 2.703504
1 0.678152 3.170197 0.060823
1 -2.815909 4.666904 0.072694
1 -3.738496 0.225043 -0.570786
1 -1.755026 2.897824 -3.463617
1 -2.122977 -1.563322 -3.722237
1 0.289658 -3.429596 -4.739800
1 3.285308 2.349161 -1.617768
1 2.316169 4.197020 -0.493668
1 -3.734683 4.300707 3.756055
1 -1.835099 -2.434084 -3.489302
1 -1.760071 -0.031653 2.310780
1 3.102709 1.941463 -3.557791
1 -4.739183 1.687287 -1.218324
1 -4.121912 2.178240 4.152117
1 -0.417789 -3.187633 -3.200789
1 -1.757365 -4.472492 -2.660919
1 -2.389357 -2.034769 2.403096
1 -4.740100 -3.567996 -1.812472
1 4.635495 2.728317 -3.610885
1 1.108974 2.563850 1.516599
1 -3.194908 -2.659852 -2.457727
1 1.844165 1.118667 2.598816
1 3.160310 -4.602748 0.963438
1 -1.803874 2.546144 -1.568430
1 3.302890 -4.390555 2.903420
1 1.093195 -1.207552 1.193052
1 -3.464527 -3.235453 2.078507
1 2.623123 -0.451878 -3.369358
1 -0.993818 4.432966 1.520351
1 1.462989 1.715856 -4.033104
1 3.902837 4.388875 -4.636594
1 0.409259 0.084785 1.377108
1 -3.215080 -1.729587 -3.787996
1 1.604994 -0.930784 0.156347
1 -3.672289 -1.373190 -1.597275
1 4.290809 3.869510 2.170466
1 4.420202 1.749720 0.555689
1 0.947358 -4.299592 -2.900224
1 1.472279 3.519661 -2.280056
1 -2.877988 -3.863436 -2.532426
1 -2.914059 0.848985 2.543310
1 -0.591760 -2.353803 0.459551
1 1.076362 1.744799 -1.323953
1 -2.575950 0.089230 1.467335
1 1.024244 0.761062 4.541248
1 -3.355283 -0.192142 -1.723632
1 -3.927692 2.229205 -4.040007
1 3.318265 -0.793818 -0.594896
1 0.444133 -4.218754 -3.941819
1 3.680545 -3.262655 2.556799
1 0.314066 -3.145289 -0.039958
1 -3.683465 -3.354717 4.181142
1 -1.446245 1.766533 -1.379620
1 -4.220257 -2.024807 -0.927834
1 4.150230 4.526165 3.269847
1 -3.620001 -4.281538 -1.528627
1 -0.422661 0.214667 -2.855161
1 -2.346016 -0.191436 -0.751835
1 -0.310786 -4.025189 0.677471
1 3.214454 -0.082573 -2.272773
1 -2.997864 1.493729 4.223304
1 -4.418964 1.226554 -0.249885
1 3.549303 0.072062 -0.021088
1 -3.526826 -1.689732 2.964616
1 -3.539476 -0.762452 4.151924
1 -0.056200 -0.822106 0.907941
1 -1.270188 -1.365000 -2.509298
1 4.586684 -0.145625 1.177535
1 3.278865 3.419347 2.421793
1 -2.616136 -3.405779 0.992517
1 0.665645 -3.495693 3.373212
1 -0.748800 -1.131274 4.056286
1 0.646082 2.326349 -0.164859
1 4.429189 0.239975 -2.616961
1 -2.298008 -0.860693 2.995105
1 2.364453 1.257513 -2.625219
1 -2.504857 4.071175 4.654512
1 -0.458802 3.139881 -0.471677
1 -0.021010 1.116510 4.598326
1 -4.567523 -1.347827 2.425793
1 -4.497311 -1.625293 4.525657
1 -1.715285 3.017362 2.180143
1 -3.484708 2.102091 -0.841458
1 1.203485 0.449907 -3.783197
1 -3.828795 -2.290303 3.825077
1 3.550074 2.647383 3.460043
1 -4.405772 -4.714214 0.010442
1 4.471472 -2.101193 -2.312955
1 -1.613724 4.510272 -3.700476
1 3.064623 3.126754 -3.873669
1 -2.565588 4.187105 -3.420856
1 2.983159 -2.418641 -0.620922
1 -1.701935 -2.574782 1.407126
1 -4.063125 -2.690133 2.604980
1 -2.338007 -3.126404 -4.603821
1 -4.209023 -0.711406 -2.543625
1 3.145452 -1.663552 -2.743836
1 -3.625371 0.855097 -2.453219
1 -0.058469 -0.131485 4.406424
1 1.262771 -1.185533 3.668768
1 -0.273268 -1.695900 1.672521
1 0.303315 2.518457 -2.520798
1 4.122896 0.539848 -1.355302
1 -4.156512 0.788111 3.041171
1 4.684546 4.338535 0.812889
1 -1.327706 3.809368 -2.518225
1 2.208408 -1.382563 1.274673
1 0.341807 -0.805204 -4.424560
1 2.172416 2.331918 -2.040639
1 3.730851 2.122368 1.752891
1 4.161178 1.593019 -3.611742
1 1.053452 -2.086085 2.285326
1 -3.430862 -4.330836 -3.446231
1 -1.368225 -2.047660 4.672963
1 0.701632 -3.543906 2.051981
1 -3.156485 1.467859 -1.998815
1 0.430568 -0.510525 -1.288329
1 4.407359 -3.990209 2.606397
1 -3.160565 2.102433 3.070677
1 3.040973 -2.277803 -4.673820
1 1.606647 -0.831328 -3.414254
1 -2.794610 3.468076 0.374549
1 -3.669524 2.487054 -2.860511
1 -1.878958 -0.964691 0.457213
1 1.420485 1.530112 1.173550
1 -4.259682 -4.471646 -2.782980
1 -0.205564 1.974294 -3.695436
1 -0.135639 4.107641 -2.319296
1 -4.407173 3.222212 3.166637
1 1.524990 3.928299 2.588340
1 -4.286670 0.548120 -1.560054
1 4.250588 -2.309856 0.251744
1 2.240002 -0.064152 -0.099475
1 0.745851 1.553953 2.655792
1 2.938999 -2.248266 2.153350
1 -4.307154 -0.696097 3.538537
1 2.110271 4.712857 0.598982
1 1.318497 -1.506193 -4.396060
1 -0.463286 3.408154 -4.608786
1 2.019228 -1.987604 3.115173
1 -3.548765 3.834388 -4.145863
1 1.338158 -3.112643 3.311954
1 -0.888558 -2.885943 -4.527281
1 -0.791022 4.609888 4.728902
1 -4.122565 3.472472 -1.963207
1 -3.839609 0.924410 -4.313521
1 -0.256734 -2.411552 2.738885
1 3.761222 3.761729 -3.561286
1 -2.921442 -4.441924 2.621101
1 -0.456080 -2.911685 3.839623
1 0.158856 3.966253 -0.830009
1 3.945306 0.812058 1.361363
1 -0.596883 -3.769951 2.908362
1 1.446184 -0.364091 4.419445
1 0.897537 2.924322 -1.330115
1 3.593036 0.216996 -3.492015
1 -2.956299 1.047643 -1.067074
1 2.648928 2.635395 4.148776
1 -1.392570 0.732164 -0.832120
1 4.184126 -1.982430 -0.776651
1 -3.598982 -4.205017 0.556503
1 1.807008 -0.115923 1.105946
1 2.697083 -0.770022 -1.387124
1 -0.787520 -2.414003 -2.433732
1 4.142699 -0.117233 3.304526
1 0.214141 -2.124794 4.572110
1 3.394427 1.852309 -0.677920
1 -0.378130 4.191858 0.371443
1 -0.428978 4.262416 -3.733786
1 -4.440601 1.999863 3.360811
1 1.151155 -4.523507 1.223251
1 -2.959793 -2.391840 -0.994666
1 -0.713811 2.291324 1.262846
1 1.937273 2.764513 -0.618937
1 -3.136170 3.786904 -1.197230
1 0.571138 3.857442 -2.776298
1 3.895650 1.555797 -2.325481
1 -1.467846 -3.782804 2.235996
1 3.545030 -4.257561 -0.261233
1 -2.119795 -3.085081 -0.109554
1 -3.450702 -2.054703 1.591120
1 1.531690 2.319786 -2.826034
1 -1.708264 1.061204 1.638887
1 -1.097296 -3.522164 -0.004462
1 -4.575504 -4.138847 1.648314
1 0.760392 -3.023770 -3.000538
1 -4.605717 0.071036 -3.864435
1 -4.626213 3.536309 -4.696337
1 3.350961 -2.319101 3.349849
1 -1.197888 -0.436227 -0.386562
1 -3.539298 -4.708229 1.783598
1 2.184143 1.807693 -0.833466
1 -2.413648 2.205904 -0.430494
1 0.555521 -2.255917 -3.866302
1 -0.512289 -1.257944 -0.035753
1 2.379532 -1.741807 -3.670992
1 -2.441305 3.152678 3.530560
1 1.522784 -2.779336 1.679365
1 -2.887717 -3.426157 3.567610
1 2.058384 4.444652 -2.157030
1 0.277695 2.978071 1.069004
1 -2.070786 3.261487 -0.638462
1 -1.166306 1.746434 2.486423
1 2.298124 -1.328453 4.387348
1 2.898612 3.502490 -1.855213
1 3.566747 4.630350 1.826055
1 -2.994877 1.714784 -3.545872
1 -1.836882 1.583491 -3.143015
1 -1.549860 -1.372063 1.398342
1 1.213170 2.528926 2.780697
1 0.543286 -4.649661 4.208980
1 3.400292 -3.370705 -1.963687
1 4.590823 -0.192221 2.219574
1 -2.828718 2.877251 1.700001
1 1.400016 3.126996 -4.065785
1 4.229569 2.701407 0.103259
1 -2.201563 -4.163137 -4.480994
1 0.163908 1.549950 1.592051
1 -4.212582 -1.897864 -2.449943
1 2.383074 3.011761 3.155798
1 -2.751681 1.182838 1.247804
1 -1.104918 0.581816 2.924229
1 3.281865 -1.050970 -4.254126
1 -2.800781 -2.006686 0.569491
1 -1.511956 -2.458531 -1.458856
1 1.934479 -4.045131 2.032313
1 3.060756 2.302753 0.504284
1 0.778527 1.799583 3.904823
1 2.829132 -3.514813 -4.171693
1 -0.822815 -4.509387 -1.824346
1 0.075921 4.583929 3.387450
1 0.557559 -2.599926 -2.168150
1 -0.269292 -3.692859 -1.901726
1 -4.373685 1.851249 -2.260964
1 -4.044869 0.476697 2.115564
1 0.541454 -4.714108 -1.635834
1 2.955166 -3.472100 -0.676084
1 -0.412277 -4.284742 -3.017829
1 -0.891856 1.818236 3.555683
1 -3.969417 -1.867586 0.472105
1 -1.966278 -1.929087 -0.453522
1 3.152155 -2.828396 -3.098819
1 -4.232428 2.892609 -0.656131
1 2.475911 1.749010 2.885947
1 -1.442870 -2.373954 0.676881
1 3.096359 0.230566 4.256803
1 4.195390 -4.394001 -1.531825
1 -2.528072 -1.218695 -1.195556
1 -0.266342 1.216235 -2.255919
1 4.570857 -3.206961 4.189246
1 -4.604798 4.193108 -3.754693
1 -2.312251 -3.374015 -1.522186
1 4.329075 -0.819371 -0.142470
1 1.403328 -0.402443 2.641842
1 1.620683 -0.377320 -0.901777
1 0.435159 -0.654609 -0.034026
1 -3.066535 -2.981932 -3.679718
1 -1.633564 2.131783 -4.691333
1 3.677206 0.586425 -4.352914
1 -3.784006 0.495381 3.987016
1 4.428892 2.744476 -2.715856
1 3.553292 1.479489 3.590803
1 2.407728 -0.268396 3.393669
1 2.434752 -3.160639 2.468203
1 3.408323 0.963222 -2.427113
1 0.385709 -0.305215 -3.483104
1 2.278890 -4.200916 -1.387499
1 1.521595 -1.782247 -0.657490
1 4.332481 -1.846620 -3.820619
1 -0.584109 0.750277 1.723432
1 1.000363 0.573495 1.926170
1 3.506060 -3.490519 3.640879
1 2.214248 -2.996818 -2.165906
1 3.098733 -4.519145 -2.118345
1 -3.649055 1.822072 1.840801
1 -4.035284 -2.856647 -4.291760
1 -1.800877 -4.385085 0.484660
1 -3.897566 -3.124260 0.826937
1 2.699947 1.138361 1.004121
1 0.364583 3.470992 2.559537
1 0.842736 -1.699283 -2.972464
1 2.737656 -3.475056 4.114856
1 3.612015 3.920187 0.577508
1 -3.072454 3.618509 2.691519
1 -1.063643 3.830826 -1.407132
1 2.129010 -0.616723 -2.184259
1 3.923501 -2.731934 -1.460672
1 1.101033 -3.596017 0.570421
1 1.674697 -2.623589 0.272825
1 -1.764554 -4.292374 3.639182
1 -1.906069 0.739180 -1.849025
1 -2.252390 -2.076307 -2.212502
1 -1.058294 -1.430419 -1.115943
1 -3.713134 -3.088086 -1.664150
1 -1.351063 4.158879 3.698272
1 -2.562333 -1.203523 1.835488
1 4.611659 -0.024306 4.521905
1 1.933155 -1.993577 -2.391139
1 2.718384 -1.482247 0.139410
1 2.180325 -2.445843 4.065448
1 1.479466 -2.686603 4.690543
1 2.026805 -1.055585 2.155269
1 -4.488787 -4.272653 -4.205516
1 0.181290 0.097993 3.111286
1 4.558883 -0.805133 -1.428329
1 4.006847 -1.906545 1.902482
1 4.057402 1.070679 2.552137
1 1.854696 2.236223 0.590052
1 -0.791860 3.067705 2.302343
1 -3.448880 -2.781353 -0.163090
1 -3.521866 -0.345948 -4.375578
1 4.406193 3.034798 1.355837
1 1.970341 1.100965 -0.020499
1 3.457341 3.887040 4.102510
1 1.079480 -1.550018 -1.497711
1 4.177232 3.650587 -1.914641
1 4.736647 -1.427506 0.991017
1 -0.954910 3.244502 0.591585
1 -0.052812 -4.545940 2.052961
1 -0.454781 1.617425 -0.240866
1 3.162743 -0.321860 0.971443
1 2.167195 4.677795 -4.457434
1 1.650360 4.288829 3.679469
1 -1.693919 3.275103 -4.545538
1 2.389891 0.416973 1.637557
1 3.964981 -2.892232 -3.756394
1 -0.959269 4.656069 -0.466322
1 2.614764 -2.347479 0.982093
1 -4.119636 -3.575930 -0.455746
1 -2.075747 -4.185399 1.561992
1 4.358409 3.966816 -0.437687
1 3.437467 1.644643 4.581496
1 3.199626 3.183846 -0.600380
1 -2.419479 0.953955 -0.039082
1 -2.938721 -1.212109 -2.790055
1 -2.238407 2.006648 2.180485
1 -0.739168 0.370804 -4.112655
1 -4.171440 -1.389579 -3.716820
1 4.157886 -3.881753 -4.558266
1 -1.372932 2.129718 -0.034440
1 2.486201 4.139225 -3.210476
1 2.686527 1.703026 1.829525
1 3.423966 -3.429865 1.496410
1 -4.057428 2.963525 2.218621
1 -2.749766 -4.626135 3.874084
1 0.768211 4.168117 -4.412083
1 2.294476 4.198009 1.848925
1 -0.224043 -1.012918 -2.821238
1 -3.196988 4.539772 -2.312137
1 2.312143 2.369814 -4.341615
1 1.564583 3.824810 -1.200453
1 -3.437694 3.440006 4.304279
1 3.798228 -1.009028 -2.011125
1 -0.085218 1.072506 3.238453
1 2.640723 -2.006717 -1.342738
1 -0.767575 -0.192073 -1.626537
1 -4.172051 -3.782091 3.279258
1 4.261992 2.688976 -1.221527
1 1.705480 -2.934264 -0.942580
1 -3.062882 -1.942262 4.636114
1 -1.995526 -3.667133 -3.505433
1 -0.090282 -1.498723 -1.687555
1 2.696805 4.177957 3.072801
1 1.765739 0.910444 -1.346092
1 3.519936 1.127221 -0.000671
1 0.696102 2.302705 -4.507278
1 -0.863161 -3.708209 -4.103076
1 1.439214 0.477902 3.484277
1 -1.693253 -3.346348 3.779177
1 2.920472 3.239960 1.215836
1 -2.117732 1.320458 3.281478
1 -0.406018 0.299134 0.261292
1 -0.132944 2.051517 -1.097710
1 2.412491 -0.074266 -4.444759
1 4.623295 1.483642 4.724384
1 0.575117 0.946727 -3.580207
1 2.329001 -3.714154 1.076653
1 1.701480 -3.692780 -3.955987
1 -1.248580 -0.186474 3.719329
1 -1.683030 3.842750 1.321020
1 -1.975000 2.471311 0.842558
1 -0.911704 4.193196 2.705541
1 2.317283 -3.952853 -2.908585
1 -1.212737 0.565733 -2.697939
1 -2.679182 -4.111366 -0.682743
1 0.939061 0.637710 0.255352
1 -0.079903 0.609571 -1.113809
1 -2.904605 2.879720 -3.712268
1 -3.852330 -0.979776 -0.457266
1 0.254058 1.467479 0.556395
1 -2.281066 -1.118534 4.275179
1 -2.371967 0.158391 0.412814
1 -1.579320 -1.895238 3.390523
1 1.346346 -3.751996 -2.086620
1 4.216018 -3.782112 0.543136
1 4.741429 -2.790950 1.557735
1 -4.455356 1.855629 1.875708
1 3.447261 4.400228 -0.878711
1 -1.390593 -4.058585 -1.147422
1 2.977448 -1.145991 2.802664
1 -1.133223 1.531489 -4.030963
1 -4.018752 -3.141438 -3.168348
1 -3.358141 -4.295236 -4.559835
1 -0.439885 -0.471176 2.155871
1 3.117142 0.462112 2.793609
1 4.011627 -0.954508 -3.136050
1 3.885089 2.658544 -4.608875
1 -0.799385 -3.985118 4.007242
1 -2.355277 2.224745 -2.359453
1 3.950242 -4.122703 -3.053102
1 0.047899 -2.847021 1.481022
1 -0.755526 2.960092 -3.138071
1 -0.026171 2.401157 2.873870
1 -4.321964 0.729970 0.892496
1 2.010892 0.462150 -2.648403
1 -2.464342 -0.099560 -2.640985
1 -2.437043 0.624117 -3.277794
1 -4.478217 -4.534819 4.092489
1 4.494353 -2.414796 3.205831
1 -2.960603 -0.833618 0.122092
1 1.238139 3.479482 4.115263
1 -2.469626 -0.403337 -4.285507
1 4.041013 2.568391 2.724278
1 -2.269854 4.582696 -1.463504
1 0.278609 4.215230 1.579101
1 4.653327 0.149566 -0.371272
1 0.870348 -0.649504 -2.376276
1 0.858184 4.457367 0.207754
1 -3.771428 -0.423833 0.710643
1 0.725110 0.528546 -0.618875
1 4.248402 -0.789804 -4.600419
1 3.436007 -2.966899 0.518027
1 -4.313565 1.106224 -3.321610
1 3.046450 -4.622218 4.263180
1 4.012370 -2.386972 4.637306
1 -2.512702 3.555080 -2.468598
1 0.104148 -4.130815 -0.640387
1 4.394288 1.072445 3.627472
1 -1.149921 -1.179091 2.801039
1 0.445651 -1.173814 2.396770
1 -3.998111 3.700134 1.128055
1 -2.055902 4.450417 2.673871
1 -2.748161 4.165031 1.298493
1 -4.162369 2.504337 0.708577
1 3.165596 2.770024 -2.641721
1 1.873318 -2.767325 -3.453548
1 0.842906 1.522754 -2.750130
1 -2.473573 -2.221425 3.720588
1 -2.429376 0.798120 -4.448363
1 2.482797 3.557854 4.606885
1 -1.244255 -2.546457 2.525877
1 -0.900848 -3.669446 1.337327
1 -0.013625 -1.270630 3.564152
1 4.101814 4.361986 -2.679547
1 -2.911306 2.529698 4.701636
1 2.842379 0.609249 -1.119075
1 0.648269 -2.072645 0.583863
1 -4.069499 4.536393 2.669519
1 -0.832464 2.027963 -2.545351
1 -1.180275 -0.191861 1.148243
1 4.589237 3.343182 3.941398
1 -3.630708 -0.253559 -3.325960
1 3.276135 -4.602087 -3.642100
1 -1.858541 -0.688520 -1.928400
1 -0.482272 -2.015474 -3.401788
1 3.550176 -1.473404 0.970220
1 -0.436487 2.933386 -1.817273
1 -3.308958 2.294147 0.331845
1 2.212375 2.783047 1.862912
1 1.516748 4.399266 -3.427405
1 2.160178 -4.008603 3.308564
1 1.448142 2.299277 3.774969
1 -0.642589 -2.814979 -1.016466
1 -3.872310 3.545786 -2.979583
1 -0.952704 3.095249 3.676334
1 2.357287 1.067393 -4.159796
1 0.005643 -2.105228 -0.572636
1 2.076024 -3.782616 -0.296556
1 -2.382115 -3.214718 2.479336
1 -3.623878 -0.711631 1.840870
1 0.148320 3.540558 3.813320
1 -3.313309 2.782431 -1.658915
1 -3.450169 1.293320 0.449982
1 -0.674751 -1.294686 -4.136531
1 0.699311 -3.101440 -1.183716
1 2.058199 3.129241 -3.110983
1 3.463416 -0.496490 2.057455
1 -2.511019 0.275648 3.783263
1 4.487490 -3.009314 -2.932619
1 3.161935 -1.199137 4.001898
1 -1.432473 0.939760 4.348208
1 -1.629821 -3.357914 -2.460815
1 -3.721750 3.789964 -0.211606
1 4.560043 -3.389696 -0.522813
1 4.087231 -1.342137 3.379862
1 1.182882 -4.351983 -0.627619
1 0.235066 3.057979 -3.747684
1 1.471572 3.625956 1.286979
1 -4.278116 4.472822 -1.300913
1 -3.165661 -0.205069 2.933782
1 2.256558 3.354529 0.518570
1 0.766627 0.424504 -2.080771
1 2.315444 1.278211 3.945346
1 -1.508298 -0.474525 -3.443630
1 0.642524 -2.118399 3.452887
1 -1.695877 -0.151779 -4.630635
1 -1.803417 4.029612 -0.108256
1 -1.897107 2.457371 3.646784
1 1.462682 -4.111813 4.498722
1 -0.393494 2.299025 4.656177
512
step:20000 columns:id,pos dt:0.01 cell:9.485048811973503,9.485048811973503,9.485048811973503 
1 -1.352797 1.058702 0.980337
1 1.396041 4.531877 2.969043
1 0.642708 3.431409 0.016689
1 -1.809908 3.640794 -0.107564
1 -3.522697 -0.545665 -0.758898
1 -1.849506 3.369050 4.227808
1 -2.193817 -1.275667 -3.790000
1 0.156726 -3.449600 4.606356
1 2.746772 2.373087 -1.497621
1 2.375920 4.703946 -0.660037
1 -3.684002 -4.300008 3.274341
1 -1.140449 -3.253426 -3.132021
1 -2.622796 -0.392081 2.789511
1 2.737903 1.761397 -3.664996
1 -4.662641 1.950850 -0.518609
1 -4.007780 2.485966 4.053035
1 -0.067014 -3.621682 -3.236255
1 -2.350301 4.533307 -2.211079
1 -2.690222 -2.377410 1.941380
1 4.562389 -3.442409 -2.650080
1 3.960610 2.856222 -3.895065
1 0.751829 3.840921 1.229149
1 -3.756578 -2.755899 -2.748393
1 1.672816 2.159335 2.111452
1 2.514747 4.014192 0.810013
1 -1.042538 3.104747 -2.793843
1 2.315261 -4.453179 3.419475
1 0.258993 -0.697598 0.829646
1 -2.512120 -3.270597 1.167707
1 2.227568 -0.861272 -3.138234
1 -0.641667 -4.234652 1.208406
1 2.317989 0.562216 -4.444777
1 3.915526 4.044749 -4.630548
1 -0.072075 1.106164 0.666909
1 -3.432442 -1.661709 -3.824298
1 1.570842 -0.746513 -0.185865
1 -3.707520 -1.901796 -2.049111
1 4.646712 4.397126 2.370224
1 4.161916 0.913086 1.901798
1 0.945547 -4.354478 -2.912128
1 1.778758 3.282196 -1.887857
1 -3.499394 -4.385417 -2.516460
1 -2.946239 0.596976 2.099273
1 -0.290625 -3.035396 0.968663
1 0.669923 1.773097 -1.181049
1 -2.632399 0.000540 1.087687
1 1.316039 1.245719 4.545596
1 -3.856072 0.113141 -1.628263
1 -4.223652 2.149920 -4.420664
1 3.617894 0.482666 -0.722029
1 -0.086350 4.737289 -3.901701
1 4.016155 -3.390379 2.127503
1 0.531378 -2.773725 0.373325
1 -3.232588 -3.673927 4.522603
1 -1.468185 2.129500 -1.601825
1 4.590836 -2.256275 -1.093981
1 3.492731 -4.235778 4.314874
1 -3.927974 -4.180893 -1.634006
1 0.214188 0.921306 -2.666104
1 -2.541548 -0.072933 -1.033611
1 0.680615 -4.092332 0.528969
1 3.103230 0.378194 -2.054724
1 -2.514089 1.624682 3.937948
1 4.270286 0.801898 0.238351
1 3.579915 -0.482298 0.371941
1 -3.519011 -1.758357 3.326041
1 -2.662556 -1.677450 4.553657
1 -0.626486 -0.357489 1.397089
1 -1.442842 -1.777260 -2.098372
1 4.376665 0.257853 1.300230
1 4.095171 3.079109 2.687109
1 -1.307337 -3.752894 0.310786
1 0.266597 -4.530862 4.101616
1 -0.945725 -1.020358 4.095670
1 0.085536 2.211732 -0.252667
1 4.704342 0.499387 -2.605871
1 -2.098370 -1.197320 2.679393
1 2.291617 0.950407 -2.805330
1 -2.842005 3.726972 4.733778
1 -0.751840 3.178598 -0.008790
1 -0.758653 0.667356 4.532431
1 -4.263777 -1.474261 2.570147
1 -4.149240 -1.671350 4.620734
1 -1.581199 2.983052 2.856140
1 -3.757618 2.133487 0.014439
1 1.410025 0.372202 -3.504452
1 -3.896495 -2.932896 3.899629
1 3.898544 1.500867 4.123481
1 4.028921 4.735592 0.138039
1 4.192116 -1.257117 -2.261387
1 -1.855107 4.204707 -3.755806
1 3.283124 1.938460 -4.669737
1 -2.776142 4.117770 -3.286392
1 3.831810 -1.808661 0.326938
1 -1.633597 -2.736157 0.972705
1 -4.029276 -2.661912 2.295907
1 -1.994469 -3.536645 -4.634981
1 -4.448024 -0.662912 -2.793777
1 2.846593 -1.633482 -2.856198
1 -2.672172 0.891696 -2.969670
1 -0.141378 -0.287546 4.033903
1 1.548151 -0.876064 4.008045
1 -0.037974 -1.972911 1.288768
1 0.788351 2.541320 -2.133708
1 4.314559 0.971124 -1.425019
1 -3.335061 1.219417 3.194012
1 4.062715 4.394566 1.262485
1 -2.025244 3.218897 -3.168442
1 1.880429 -1.372818 0.849176
1 0.499534 -0.809127 -4.327813
1 1.825388 1.888444 -2.245819
1 3.956123 2.044699 0.971381
1 3.859365 2.209318 -2.992910
1 1.319982 -2.514235 1.766477
1 -3.140085 -4.522273 -3.986378
1 -1.909022 -2.342904 -4.623392
1 0.302246 -3.715109 3.305474
1 -2.611503 2.405044 -2.532606
1 0.960311 -0.642408 -1.532744
1 -4.436896 -3.814245 2.505887
1 -3.414818 2.225082 2.672865
1 3.144665 -2.496682 -4.472397
1 1.237989 -1.402099 -3.405141
1 -2.230414 2.644995 0.637086
1 -3.586848 2.121476 -3.062897
1 -1.091492 -1.621416 1.123978
1 0.728249 1.152130 1.569503
1 -4.613475 -4.557514 -2.711802
1 -0.386609 2.135402 -2.396824
1 -1.423250 4.380696 -2.414967
1 -3.751983 4.109479 3.194000
1 2.284140 3.810711 2.397799
1 -4.058064 0.972371 -0.742811
1 -4.642758 -2.335403 0.168759
1 2.713666 0.119457 -0.003817
1 0.317052 1.587422 2.644743
1 2.817291 -1.194398 1.454646
1 -4.074580 -0.288363 3.736729
1 1.797086 -4.413225 0.567770
1 1.295859 -2.146657 -4.714907
1 -0.038909 2.452230 -3.672391
1 2.340507 -1.437926 2.700505
1 -3.490986 4.631779 4.480484
1 1.149319 -3.535774 2.936114
1 -0.750769 -2.575132 -4.127190
1 -0.680861 4.226752 4.601916
1 -4.067060 3.379591 -1.077697
1 -3.587372 0.630942 -4.581559
1 0.213499 -2.474483 2.593737
1 4.144105 3.982321 -2.952243
1 -2.853707 -4.568340 1.388324
1 -0.703148 -2.343024 4.306988
1 0.257478 3.784080 -1.776279
1 3.084265 0.482617 1.436954
1 -0.836566 -2.733967 3.209499
1 0.735597 0.318217 4.584520
1 0.546858 2.993962 -1.058741
1 3.452712 0.818074 -3.127673
1 -2.862425 1.188855 -1.503419
1 2.930744 2.723332 3.684487
1 -1.861641 0.901006 -0.473295
1 3.950000 -1.100238 -0.990656
1 -3.088443 -3.971304 0.588999
1 1.246649 -0.121669 0.903176
1 2.548599 -0.462126 -1.055822
1 -1.430389 -2.892530 -1.841444
1 4.052194 -0.659036 3.680754
1 0.686916 -1.550600 4.215201
1 3.420991 1.903539 -0.810392
1 0.063728 4.593350 -0.574975
1 -0.630087 3.568996 -3.591277
1 -4.397353 2.992804 3.085449
1 1.721496 -3.954733 1.981192
1 -2.648392 -1.450272 -1.141793
1 -1.067164 1.979181 0.723401
1 1.695336 2.538301 -0.888937
1 -3.062672 2.920146 -0.314848
1 1.554536 3.962308 -2.663473
1 4.534758 1.960328 -2.009608
1 -0.884069 -3.976160 2.926335
1 3.211863 -4.530448 0.357182
1 -2.484644 -3.197093 -0.410777
1 -3.445749 -2.196543 1.420990
1 1.660082 1.686316 -3.726556
1 -1.650839 0.729285 2.305569
1 -0.228294 -3.659451 -0.478689
1 -4.484842 -4.011286 1.214404
1 0.974357 -3.217197 -3.239541
1 4.073821 -0.324267 -3.475797
1 -4.583934 3.325626 -4.231652
1 3.263171 -2.106682 2.816664
1 -1.483463 -0.765250 -0.750775
1 -4.063945 4.610616 0.742934
1 1.884550 1.431526 -0.421180
1 -2.706936 2.292656 -1.458239
1 0.363719 -2.384661 -4.041764
1 -0.995045 -1.651309 0.001204
1 2.108787 -2.005133 -3.850902
1 -2.858242 3.133612 3.517237
1 2.684187 -3.894056 1.245728
1 -3.163054 -3.446935 3.031990
1 1.719102 -3.767298 -2.229380
1 -0.207063 4.216211 0.602408
1 -2.004649 3.456258 -0.968084
1 -0.642675 1.775060 2.267126
1 2.701575 -1.469134 4.719805
1 1.529308 4.289855 -1.158910
1 4.176346 -4.336430 3.069383
1 -3.278703 1.433439 -3.981166
1 -1.633421 1.797492 -2.874997
1 -1.022348 -1.411298 2.498341
1 0.864809 3.137994 1.998233
1 1.227546 4.188454 4.308037
1 3.388380 -3.455204 -1.798571
1 -4.650010 -0.421423 2.157219
1 -2.767451 3.642554 1.369457
1 1.996005 3.380821 -4.277352
1 3.809887 2.513432 -0.286637
1 -1.750491 4.584370 -4.629956
1 -0.250743 2.771169 2.361067
1 4.507731 -2.449878 -2.506312
1 2.460954 2.717100 2.410563
1 -2.450471 1.277372 0.722418
1 -0.047883 0.398290 2.851602
1 3.525638 -1.357205 -4.128862
1 -2.203116 -2.221266 0.038596
1 -2.593733 -2.554615 -1.583940
1 2.915847 -4.705373 2.330356
1 2.509187 2.281405 0.155586
1 0.138384 1.942622 4.368702
1 2.456515 -3.650080 -4.685753
1 -0.840938 -3.874278 -2.111553
1 -0.661547 4.478285 3.526453
1 -0.039621 -2.288367 -2.878585
1 0.187482 -3.145039 -2.161225
1 -3.813882 1.238709 -2.061665
1 -3.743215 -0.227204 1.740346
1 -0.031012 -4.704506 -2.254400
1 3.773097 -3.076040 -0.667567
1 -1.080188 -4.554466 -3.139561
1 -1.095466 1.184911 3.444463
1 -3.911979 -1.904624 -0.657396
1 -2.583927 -1.091317 0.395550
1 2.766802 -2.771965 -3.242179
1 -4.508040 3.648995 -0.306931
1 2.801120 1.797932 2.745224
1 -0.986555 -2.829889 -0.308527
1 2.897190 -0.414916 4.570444
1 3.915836 -4.341565 -1.142718
1 -2.514061 -0.960235 -2.170674
1 0.448874 0.598864 -1.180110
1 -4.647028 -3.634888 4.670292
1 -4.258528 4.545186 -3.843346
1 -2.712296 -3.908617 -1.352759
1 4.704416 -1.247546 -0.056302
1 1.276575 0.190243 2.705936
1 1.478273 0.382627 -0.761768
1 -0.277130 -0.868963 -1.123822
1 -2.506061 -2.830874 -3.647753
1 -1.936422 1.731345 -3.924230
1 -4.521041 0.482837 -3.821056
1 -3.966025 1.468832 4.172187
1 -4.487129 2.996033 -2.781393
1 3.488017 0.386313 4.519974
1 1.772318 0.321034 3.892571
1 2.416358 -3.068353 2.825608
1 3.352588 1.632213 -2.012720
1 0.065467 0.203192 -3.725508
1 2.504342 -3.832903 -1.016691
1 1.643816 -1.668232 -0.530090
1 3.888543 -1.856849 -3.456515
1 -0.432272 0.778689 1.669442
1 0.376263 -0.156117 1.903041
1 3.134589 -3.757704 2.854124
1 2.352852 -2.720812 -1.968054
1 3.644224 -4.322990 -2.538960
1 -3.188660 2.167293 1.387062
1 -4.510256 -2.716817 -3.905159
1 -0.968977 4.708852 0.126399
1 -4.099657 -3.142057 1.228229
1 2.605207 1.592340 1.376907
1 0.424643 3.663699 2.956419
1 -0.078018 -1.292905 -3.808091
1 3.268887 -2.874987 3.709247
1 3.564868 3.183700 0.272372
1 -3.228775 3.296584 2.164668
1 -1.355718 3.273120 -1.770130
1 1.951611 -1.600248 -1.732975
1 3.587469 -2.389729 -1.979944
1 1.600344 -3.073540 0.816250
1 2.544405 -2.500958 0.561758
1 -2.071477 -4.213601 2.856970
1 -1.735793 0.869033 -1.646156
1 -2.490134 -2.147404 -2.795911
1 -1.539459 -1.929231 -0.990643
1 -3.663037 -2.968643 -1.350960
1 -1.663978 4.170252 3.480122
1 -2.179897 -1.393786 1.374015
1 4.599484 0.328069 4.606405
1 1.327380 -2.249316 -2.801538
1 2.748661 -1.229660 0.125540
1 2.157910 -1.987952 3.845343
1 0.340633 -2.659952 3.852976
1 1.986628 -0.306175 2.526224
1 -4.099469 -3.632731 -3.779431
1 0.711496 -0.455221 3.285963
1 4.335721 -0.274206 -1.469510
1 3.764890 -1.143371 2.598674
1 3.708215 0.463642 2.992049
1 1.091698 2.181860 0.343101
1 -0.347607 3.945056 1.946549
1 -3.212935 -2.405217 0.046856
1 -3.699705 -0.757567 -4.561373
1 -4.676564 3.031206 1.680293
1 1.955937 1.037845 0.590746
1 3.093398 3.506313 -4.736844
1 0.854395 -1.904946 -1.418825
1 3.632809 3.569489 -1.740861
1 -4.391768 -1.338993 1.147943
1 -0.192189 2.819617 1.009135
1 0.312050 -4.706878 2.696573
1 -0.708672 1.455639 -0.426667
1 2.290193 -0.275043 1.177511
1 1.851075 4.591579 -4.142469
1 2.309948 3.629383 3.875493
1 -0.366338 3.220580 -4.564205
1 1.869003 0.829304 1.957850
1 4.516238 -2.361376 4.695281
1 -0.749519 4.284427 -1.336009
1 2.416621 -2.640703 1.811717
1 -3.767444 -3.460041 -0.032795
1 -1.818370 -4.386080 1.530204
1 3.528821 4.249273 -0.693705
1 3.682711 0.977129 -3.793893
1 2.893350 3.434427 -0.679171
1 -2.554982 1.841942 -0.354571
1 -3.333101 -1.179372 -2.834726
1 -2.178801 2.046275 2.946121
1 -0.813128 0.183460 -3.478964
1 -4.569199 -1.557151 -3.600517
1 3.539878 -3.364454 -4.328756
1 -1.526195 2.187395 -0.298751
1 2.835845 3.912206 -2.032156
1 3.610463 2.051921 2.053312
1 3.707257 -4.158500 1.448463
1 -4.665572 2.089855 2.003893
1 -2.636206 4.104050 2.722762
1 0.761669 4.235742 -3.807533
1 3.456725 3.807748 2.197222
1 -0.895393 -0.967577 -2.922737
1 -3.048965 4.288841 -1.218792
1 2.017605 2.208235 4.691244
1 1.012690 -4.534901 -1.643033
1 -4.031441 3.570020 4.314763
1 2.926056 -1.347131 -1.546760
1 0.207548 1.050389 3.847082
1 3.247042 -1.929777 -0.707529
1 -0.304074 -0.098052 -1.922396
1 -3.502644 -4.159160 2.139188
1 4.244389 2.818834 -1.514990
1 2.104961 -2.729822 -0.571699
1 -3.284721 -2.641679 -4.493903
1 -2.085280 -3.992295 -3.575926
1 -0.211773 -1.514385 -2.119707
1 3.256608 3.985792 3.505282
1 1.582817 0.757235 -1.898786
1 3.336776 1.219245 0.380515
1 0.997132 2.748327 4.738885
1 -0.840642 -3.947539 -4.305444
1 1.394670 1.295243 3.247005
1 -2.001954 -3.111745 3.705308
1 3.269976 3.082000 1.373291
1 -2.460011 0.477779 3.506260
1 -0.868227 -0.167806 0.407469
1 -0.555331 2.969931 -1.425339
1 1.685500 -0.526562 -4.257888
1 4.486566 1.672718 -4.421354
1 0.470031 1.457291 -4.087077
1 3.944366 -3.244847 0.690853
1 0.888618 -4.076523 -4.134036
1 -1.548898 0.203230 3.363106
1 -1.585328 2.365664 1.925859
1 -2.351138 1.620305 1.841275
1 -1.160669 4.254241 2.181956
1 2.114525 -3.562321 -3.393555
1 -1.098292 0.868225 -2.554617
1 -3.114486 -4.592450 -0.356204
1 0.366429 -0.150979 -0.358143
1 -0.642637 0.486476 -0.632916
1 -3.815171 3.588074 -3.277377
1 -4.117040 -1.099553 -1.536789
1 0.859064 2.296535 1.225215
1 -2.063344 -0.587141 4.451498
1 -2.031188 -0.346487 0.091984
1 -1.597351 -1.744108 3.672653
1 1.353784 -2.811354 -1.576217
1 4.711027 -3.597152 -0.172970
1 4.412247 -2.272683 1.441791
1 -4.170771 1.282382 2.079636
1 2.605497 -4.387383 -2.112704
1 -1.229731 -3.912486 -1.138872
1 2.790302 -0.766680 3.582855
1 -0.665987 1.546331 -3.705148
1 -3.096624 -3.468397 -2.962482
1 -2.441526 -4.576152 3.794951
1 0.342937 -1.259938 2.096292
1 2.723950 0.535223 3.128590
1 3.366524 -0.487596 -2.374004
1 4.155351 2.889953 4.092660
1 -1.094099 -3.775180 4.169253
1 -3.111210 2.877637 -3.957066
1 4.003544 -4.473402 -3.861723
1 0.507233 -3.360245 1.699282
1 -1.760821 2.800869 -4.113759
1 0.359047 2.467924 3.358701
1 -3.738874 1.020132 1.140282
1 1.964533 -0.352918 -1.939489
1 -2.745836 0.071306 -2.379930
1 -2.053844 0.697112 -3.881599
1 4.728394 -4.482548 4.425144
1 4.477577 -2.463586 2.842968
1 -3.645172 -0.977699 0.521077
1 1.493672 3.256005 3.275942
1 -2.775118 -0.265460 -3.780263
1 4.228294 1.877292 3.151101
1 -1.865755 -4.544385 -0.778903
1 0.492036 -4.431091 1.568711
1 -4.591105 -0.037837 -0.289372
1 0.672519 -0.936817 -2.753680
1 1.251041 4.490624 -0.085627
1 -3.972540 0.015225 0.550103
1 0.868401 0.842926 0.274352
1 4.459634 -0.733050 -4.641466
1 3.452774 -2.367604 1.453013
1 -4.556886 1.639657 -3.174904
1 2.624929 -4.625690 4.444156
1 4.396097 -3.377055 3.713470
1 -2.893356 3.334944 -2.067019
1 0.508308 -3.887903 -1.065303
1 -4.741044 1.014437 3.387757
1 -0.870648 -0.366959 2.850262
1 1.325107 -1.302493 1.989193
1 4.528399 3.313014 0.685920
1 -1.899780 3.661525 1.811278
1 -2.117659 4.360077 0.430991
1 -4.438819 1.854307 0.512980
1 2.797823 2.663829 -2.715678
1 1.516164 -3.161376 -4.368597
1 0.831639 1.440312 -2.813945
1 -2.690509 -2.296556 3.250921
1 -2.865853 0.369369 4.476848
1 3.157232 3.484435 -3.283361
1 -1.305380 -2.413211 2.134773
1 -0.654106 -3.467934 2.225512
1 -0.037795 -1.495985 3.254338
1 4.427998 4.302542 -1.661401
1 -2.654230 2.389089 4.542009
1 2.611751 0.946064 -1.199641
1 0.964251 -1.650248 0.588349
1 -4.178250 4.073070 1.800146
1 -0.304816 1.406389 -1.510030
1 -1.570171 -0.203875 1.611518
1 4.414477 4.240569 3.689021
1 -3.668802 0.274778 -3.174369
1 3.053057 4.559204 -3.751332