512
step:0 columns:id,pos dt:0.02 cell:17.235477520255067,17.235477520255067,17.235477520255067 
1 -7.443992 -3.137214 2.231561
1 -2.240298 5.979275 -4.019872
1 5.690123 7.673709 -1.690414
1 -6.112152 6.087962 6.477826
1 3.209474 -1.811254 -8.124319
1 -1.651466 -6.961231 -6.285823
1 -7.151471 4.663705 -1.539618
1 4.902622 3.281639 6.780658
1 -7.816551 -0.626537 -7.226747
1 1.059656 5.482187 5.749027
1 -5.151766 4.257445 5.267077
1 5.243016 8.089326 -3.502456
1 2.136902 -4.156204 -4.856890
1 5.658472 -3.190174 -2.100758
1 -3.038136 -3.674354 -4.473073
1 1.650237 -4.473090 -6.945185
1 2.175480 -3.680954 -2.970388
1 7.587950 4.106095 -0.836615
1 -0.728652 6.132036 3.351965
1 -2.221243 0.950581 -8.178794
1 8.087505 6.896006 7.956380
1 -1.974901 -8.432778 -8.021915
1 -5.780474 5.813161 -7.028413
1 6.255327 1.604525 5.972669
1 -8.106887 6.139751 -4.215799
1 -2.509386 4.329122 0.688517
1 -1.769218 -6.716659 -0.461758
1 -0.562802 -3.909748 -8.112869
1 8.563784 -1.426335 3.981134
1 -5.342546 1.560687 1.716725
1 4.403191 -7.007694 -4.341221
1 -4.102411 2.420481 0.058830
1 1.782725 5.230969 7.298895
1 -7.350082 1.942323 -3.407529
1 8.000411 -3.720417 -2.561996
1 6.234872 0.345625 -2.749929
1 -8.179993 1.609674 -0.371370
1 3.638774 6.935984 -5.003148
1 -6.601184 -2.987774 -7.253969
1 -3.593317 -6.701885 -4.600015
1 -2.176250 2.781189 -0.542811
1 -4.159068 -0.514806 7.130314
1 -7.594479 3.598472 -7.851391
1 -3.579520 -4.111355 7.450362
1 -7.681643 0.315558 4.969687
1 -7.077796 5.696787 8.351425
1 -4.520791 7.804940 1.416289
1 -7.152697 -3.118343 -3.142814
1 0.287111 -5.068958 -0.299045
1 -5.966195 -1.599831 -1.225356
1 4.622635 -0.621367 -4.337922
1 8.571355 6.814530 3.983707
1 -0.850230 1.238039 7.361958
1 6.926580 -0.098384 -1.076200
1 2.194754 -1.398253 -2.264691
1 3.693005 -2.604941 -1.291362
1 8.264413 1.216441 -7.552344
1 -3.848401 -7.051126 -2.098708
1 -8.358083 -5.517340 2.440163
1 1.141448 -2.727197 -0.617208
1 5.216384 -2.689149 3.964217
1 8.539456 3.654678 -4.163051
1 2.837632 0.452447 -1.092056
1 2.776247 2.308347 -6.338076
1 -7.504510 3.181875 1.204333
1 0.430864 -5.879653 8.224623
1 6.836047 5.745430 4.381281
1 6.509279 -7.706920 5.290709
1 7.728466 4.603676 8.063172
1 2.384472 0.616563 1.734307
1 -0.599058 -0.395759 -4.399078
1 -3.940024 -7.219355 0.590383
1 1.334467 1.162435 -6.981994
1 -2.267323 2.938040 -4.373269
1 -4.834446 1.454143 -3.166229
1 -3.652723 4.186905 -3.194144
1 -4.729471 -3.607518 5.969892
1 -4.439945 -4.907117 4.539639
1 -0.318688 -2.648799 5.273212
1 -6.200971 1.789783 4.541887
1 -7.639044 -1.112672 6.249088
1 -5.470276 8.463725 -3.594080
1 -7.822892 -7.833354 3.980493
1 5.966559 3.010222 4.729098
1 8.173388 5.935861 0.015447
1 -2.872542 -1.774727 -0.484965
1 3.040497 0.365389 3.780492
1 -0.665917 -3.816024 7.055800
1 4.249461 -1.509198 6.837695
1 7.891935 8.111311 -0.688968
1 -1.028955 8.611502 7.240355
1 2.805184 -7.195233 5.180479
1 -5.425772 -3.036539 3.995850
1 -2.729379 -0.232041 4.851942
1 -1.242578 4.428280 3.998695
1 6.645886 -7.127899 -3.683313
1 -5.627293 2.949569 -2.285984
1 2.914719 -0.614095 -6.632468
1 8.364977 -1.316129 7.973749
1 3.178369 5.272418 -5.740575
1 -1.843247 2.154576 5.463420
1 -1.584071 1.493859 -5.469361
1 -4.725148 -6.036313 6.457208
1 4.755300 -3.295804 2.017486
1 -6.909364 -6.756021 7.145614
1 -2.914933 7.439880 6.510413
1 -0.992355 -8.285657 0.308365
1 -1.686816 -6.259598 8.219292
1 -5.439676 8.586503 -1.300382
1 -4.469488 -4.092019 -6.838979
1 5.893999 3.338075 8.209338
1 -1.064382 8.029629 -4.461303
1 3.909390 8.390016 2.292120
1 -3.596425 -0.265690 -7.597139
1 4.171071 -0.288928 2.401007
1 7.575737 0.114158 -4.281065
1 0.607792 -5.763428 -2.909263
1 -6.040816 -7.987111 -7.814015
1 -3.946618 -2.580808 -2.703088
1 1.479769 0.091368 7.647024
1 6.198567 -1.070852 1.775347
1 -5.530132 -1.037589 5.559339
1 0.222761 5.400809 -3.808133
1 -2.806950 1.839782 -2.564027
1 -6.432158 -7.424242 0.651543
1 7.167932 1.629721 3.152875
1 -4.376672 -5.557113 2.090289
1 -8.541376 3.937465 3.376781
1 1.153303 -1.150949 -7.616019
1 -4.256740 -0.683623 -3.314122
1 0.063675 -2.958599 3.116001
1 -0.152096 -7.913372 -7.981846
1 1.882300 -5.946710 0.717362
1 -4.319676 1.521061 5.653775
1 1.730941 7.700606 -7.197416
1 4.679244 6.813910 3.588171
1 -0.006079 -5.028479 1.799434
1 -0.096033 -1.246554 7.118759
1 -5.762700 2.635159 -4.675319
1 2.423834 -7.099029 7.195428
1 0.103130 2.518193 6.355188
1 -6.903986 -4.628618 -4.546198
1 0.308834 -5.848342 -6.701864
1 -2.081148 8.153416 2.768019
1 -5.790520 -8.424982 6.608299
1 -7.727370 8.246874 -5.705341
1 -3.669559 1.205306 3.311527
1 -4.038746 1.395041 8.113918
1 -2.919896 8.130225 -0.683497
1 -1.752218 -7.702318 4.856022
1 5.534282 -3.254377 -8.063106
1 -4.281446 -5.565252 -0.287140
1 8.069018 5.162841 -2.645516
1 1.509883 -2.796187 5.036938
1 -2.584503 -3.615969 -8.363477
1 -6.069090 4.142597 7.523047
1 -4.653591 -3.129383 -0.313183
1 -4.805634 1.247938 -6.847686
1 -3.513898 -1.178884 2.708568
1 -0.713979 5.712029 1.219996
1 -5.151708 -2.614272 7.575453
1 2.042511 2.511091 2.812396
1 -1.905734 -4.509657 2.868584
1 7.360478 1.909305 7.826878
1 3.590285 4.916483 -1.237714
1 -5.392290 3.522247 -7.606208
1 5.643841 -4.592927 2.969356
1 2.803691 4.643201 3.452532
1 -7.214040 3.634524 5.662161
1 4.867600 -7.923955 -1.897343
1 -7.750192 -5.240380 -2.357530
1 -7.733725 0.769254 7.744079
1 2.270813 6.848964 -3.082286
1 -7.540346 -8.309787 -2.908528
1 -8.050759 -6.177859 -0.391017
1 3.865319 -8.589194 8.254882
1 8.262299 -6.810012 7.120511
1 5.538399 5.457729 -7.844853
1 -6.494444 4.345947 -3.462047
1 7.638548 -3.577832 1.723225
1 -0.919346 -1.080399 -0.117590
1 8.382492 -1.889140 -3.417401
1 3.997585 -3.849054 -8.275672
1 -0.151753 0.036752 -8.510003
1 -8.152027 6.795817 -1.748178
1 7.273983 7.783012 -4.926187
1 -5.170089 -0.941802 -5.647173
1 -6.534036 5.153222 3.913510
1 -6.720017 -5.517903 5.283357
1 6.309176 3.553847 -2.544146
1 0.415662 3.642243 4.567044
1 -6.074721 7.515329 -5.566769
1 -0.010833 -8.156200 3.202548
1 -3.404059 0.435156 -4.664371
1 3.000855 0.746463 -4.518391
1 8.203440 -1.717980 1.007329
1 -1.204189 -1.642870 -8.414475
1 8.284748 -7.307781 1.263972
1 -7.544601 -5.011135 -8.206419
1 1.869107 4.114519 -0.623699
1 2.034493 8.198970 3.136859
1 3.158491 -5.053715 2.537398
1 3.818503 4.095711 5.613913
1 -6.609044 -5.243090 2.964338
1 -6.834190 1.194993 -6.415720
1 -4.739101 -4.929291 -4.853732
1 -1.822203 5.398890 7.616609
1 4.282386 1.732397 4.312803
1 -6.312014 3.423868 3.237141
1 -4.172561 5.712867 6.973086
1 5.749820 -7.911722 -5.512593
1 1.166151 7.540521 4.779151
1 -3.806539 6.503545 -5.408661
1 -3.722476 -7.817603 -7.216318
1 -7.988747 3.016522 -1.743264
1 6.814679 0.477952 0.658553
1 -7.653718 -8.188584 -0.777491
1 -2.962000 -4.807549 -1.946870
1 4.639709 1.727633 -5.322830
1 3.389971 -1.922292 5.323625
1 -7.453000 -6.744603 -5.619531
1 4.482008 -4.763075 -5.482223
1 -7.953347 -5.279735 -6.455364
1 1.337479 1.811902 -0.888984
1 2.237398 -3.980790 6.270330
1 3.820619 8.350265 -6.136989
1 -0.824843 7.434167 5.299606
1 0.103748 3.837984 7.868040
1 3.994776 7.009359 -7.611932
1 -4.400065 0.398535 -1.433921
1 -0.636338 7.359692 -6.551710
1 4.736434 0.971917 7.184561
1 -1.103376 4.595362 6.055806
1 5.741465 1.227529 -7.482597
1 6.504747 -5.946999 -5.490295
1 4.447588 -8.058757 5.822790
1 -8.058759 5.446155 2.035508
1 -2.853456 0.138324 -0.862680
1 -3.696538 8.219272 4.510173
1 5.537276 -7.153225 7.495845
1 6.353855 2.676734 -4.277893
1 -7.086069 3.343853 -5.896372
1 3.110076 -1.276631 0.514902
1 7.501232 -3.282961 6.572109
1 2.803868 6.412498 2.223577
1 3.160306 7.909506 5.016798
1 6.752493 -2.130291 -1.352919
1 -4.891583 7.973063 8.072980
1 7.427098 2.884317 1.340244
1 0.147568 1.243376 2.461432
1 -1.807861 -2.905000 -2.724717
1 -4.886426 5.903740 -3.621807
1 4.466038 5.066780 2.375547
1 0.874011 -1.011459 -5.573996
1 3.996312 -4.596325 -2.022354
1 -0.586205 2.364037 -7.129655
1 7.720868 -5.785236 5.020089
1 -7.110517 -2.252445 0.009009
1 1.538236 8.472823 7.659406
1 -8.152858 -2.076037 -1.345927
1 -1.137299 -0.881544 3.155179
1 -1.452153 2.099353 3.751474
1 8.136409 -2.929422 -6.556103
1 7.203295 -6.417675 2.868038
1 -6.742041 5.071684 -5.447993
1 -1.558373 4.300692 -8.047491
1 7.281938 3.954352 5.909688
1 5.351770 4.779501 4.658020
1 -3.575285 -5.963834 -6.405557
1 -6.059803 -7.008172 3.161728
1 -4.210420 -2.300407 -7.770442
1 -6.488947 1.894186 -8.475337
1 5.784081 -5.320615 -3.444037
1 -0.152130 3.701514 2.531452
1 6.425204 7.209634 0.892698
1 -0.830245 4.543686 -0.434042
1 5.675590 -0.859841 -6.420480
1 2.242498 -2.039019 7.109046
1 3.973206 -5.415187 6.968210
1 -6.524607 -0.739962 -3.509093
1 1.022460 7.259054 -4.784444
1 0.046273 -0.376938 1.477566
1 -2.164631 4.353764 -5.650991
1 6.242844 -1.803158 5.973572
1 4.643950 -5.928520 5.332931
1 -6.302736 0.667905 -0.893740
1 4.372088 4.058198 -3.883035
1 -2.541917 5.327790 -1.766494
1 -0.952860 -3.589763 0.163150
1 6.664327 -7.400495 0.207776
1 -6.101828 -0.102678 1.214164
1 -2.901162 6.293459 4.112849
1 6.149002 7.590057 5.613605
1 4.524482 -2.656961 -6.018716
1 2.069417 7.000874 0.288948
1 -7.888086 8.414132 7.663226
1 3.800727 -4.059317 4.717080
1 -1.989491 -1.969263 1.782878
1 -2.911880 -6.294975 3.654123
1 4.476731 1.016919 -0.018567
1 -1.727724 -7.093807 2.168387
1 -7.303462 -2.477495 7.955336
1 -4.701896 5.605810 3.252396
1 7.747647 8.502708 3.274366
1 -8.503073 5.808246 6.036165
1 6.766684 0.647722 -5.963357
1 0.327566 -6.631189 -1.269049
1 -2.171621 0.488800 1.490014
1 -3.292422 -2.331443 4.285717
1 -0.533916 6.880876 -0.496157
1 -4.321452 -0.459458 0.650984
1 5.382626 -1.157886 -0.004192
1 -4.070925 5.336921 -8.276978
1 -2.953298 -2.360255 6.752440
1 -2.812157 -4.662871 1.167259
1 1.386386 -0.298647 -0.385270
1 4.533293 -6.217200 -0.668005
1 -3.867415 -6.409914 8.302953
1 -2.306753 -3.522797 5.131505
1 2.128043 5.774379 -7.331370
1 4.508155 -6.640700 3.184394
1 1.380643 0.546935 -2.920985
1 2.977395 4.621965 1.033129
1 -5.998032 -6.412316 -1.302777
1 -7.721388 -4.022890 4.019158
1 -2.131457 -0.422912 7.187224
1 3.486145 -5.451460 -3.761651
1 2.433449 2.570834 5.357642
1 0.148565 -3.814477 -2.342483
1 2.733039 6.884772 7.992914
1 6.775716 -2.274806 -5.199649
1 5.591728 5.643690 -1.180530
1 -7.336351 8.021880 2.365379
1 5.849614 -6.471592 -7.265438
1 0.008148 -2.488090 -6.456234
1 -6.168268 -4.268849 0.757051
1 -0.699792 1.507954 -3.445138
1 -8.383324 -5.471795 -4.080422
1 -6.969327 7.454746 4.800342
1 -4.724497 3.860369 1.811308
1 -0.751353 -5.871898 6.491498
1 0.413142 -7.607192 5.134597
1 -1.998583 -4.987491 -6.861413
1 2.376764 -4.857008 8.234327
1 0.824426 3.200959 -2.625428
1 4.256922 2.629892 -8.128665
1 5.347117 7.493579 7.738743
1 6.416517 2.445023 -0.441456
1 -0.653075 -5.249537 -4.755231
1 4.575949 -0.892403 -1.766127
1 5.202213 5.007966 0.753756
1 -1.013908 -8.541973 -1.950984
1 1.087927 8.033773 -2.711376
1 -8.070021 -4.651518 6.787764
1 1.581726 -1.767158 1.577180
1 6.509046 -1.409193 -3.269137
1 0.681140 1.555758 -4.962363
1 0.929932 1.240262 4.395634
1 -0.768003 -5.240715 4.272422
1 8.155721 7.615651 1.407012
1 2.029215 -8.145503 1.226721
1 3.991095 1.056210 -2.727706
1 -5.283413 0.125212 3.514633
1 3.576367 4.676209 8.163085
1 7.460110 -3.707712 4.321572
1 4.792258 -3.606901 6.452165
1 -6.366037 2.682391 -0.306931
1 -7.962640 5.865416 -6.967856
1 -7.905000 -8.050560 -7.775521
1 4.841862 -5.895409 1.113760
1 3.810674 6.210766 6.455889
1 -8.107705 -0.274368 -0.269320
1 7.188771 -0.473325 3.386683
1 -8.211188 -0.016306 -2.180424
1 -3.719950 -3.600450 2.753347
1 7.376077 5.720390 -5.172549
1 1.977990 -3.616306 1.577042
1 1.339293 -2.807930 -8.589902
1 1.513809 -4.438242 4.013518
1 1.151534 -5.704604 5.432001
1 6.116974 5.871445 -3.510908
1 5.986463 -5.159804 8.582764
1 0.932017 -0.771135 3.845497
1 -7.682759 1.441551 3.051003
1 -2.123612 2.778031 7.787318
1 0.463265 -2.072496 -3.776011
1 -5.934320 0.924449 6.576522
1 3.768433 -4.020157 0.396982
1 -4.287888 3.987378 -5.306339
1 -5.738371 -5.061215 7.846176
1 -6.630571 6.331862 2.158880
1 5.567551 1.280087 1.923215
1 -7.624284 -2.609934 -5.141184
1 4.919108 -8.222709 0.790839
1 -4.862132 4.565880 -0.815741
1 -0.547558 0.137481 5.128719
1 1.577015 1.715768 8.480856
1 -2.834445 -8.274049 -5.058122
1 -0.059783 6.024512 -7.912604
1 3.881345 4.097533 -7.161887
1 6.222282 5.552008 7.023618
1 0.752274 7.513899 1.682156
1 2.996246 -8.393477 -3.788638
1 -5.991916 -0.134208 -8.072658
1 -0.060462 6.721975 6.938586
1 6.429047 -0.375860 7.954928
1 -1.448659 -6.230467 -2.610322
1 -6.076261 -3.951874 -1.361516
1 2.154738 -7.330959 -5.594621
1 -7.754365 0.230837 -4.729564
1 -3.144977 7.730488 -3.015642
1 -8.335542 -4.394632 -0.168759
1 -4.552879 6.285665 5.213069
1 7.757818 8.499603 -6.847329
1 4.120675 3.276913 3.353891
1 0.681353 6.191373 -1.459871
1 2.630508 0.320377 5.844639
1 0.591078 2.370544 0.946767
1 -5.182260 -2.615150 -4.618833
1 1.086297 4.026130 -7.305595
1 2.163583 -2.644812 -6.342910
1 8.029407 1.880726 -5.683300
1 7.993857 3.828642 -6.653281
1 -2.539148 4.936632 2.379891
1 -3.677202 3.391493 3.996282
1 3.844522 -6.747460 -6.615243
1 -0.252485 5.098044 -5.898243
1 -6.910033 -2.938690 5.430434
1 0.123037 -7.666279 -3.997500
1 3.435270 7.719130 -1.062350
1 5.657201 6.241564 -5.997158
1 -6.150715 -6.665903 -3.611219
1 7.105375 -1.489323 -7.641635
1 2.262640 5.105229 -3.899050
1 4.471977 6.983219 0.849229
1 7.198468 8.464751 7.073182
1 0.995323 -8.290285 -0.769754
1 7.236704 -3.916266 -4.251011
1 4.557401 3.073035 1.250348
1 6.812563 -5.031380 6.705105
1 6.416432 -5.329208 -1.572088
1 4.723203 -2.747668 -4.242875
1 2.637762 2.348671 0.777058
1 -5.406402 -7.646602 -5.579783
1 -8.095880 -0.195382 1.951580
1 -8.497107 -8.429445 5.386382
1 -3.927454 -7.907233 2.288156
1 4.158507 2.887106 -1.816151
1 2.571957 2.782716 -3.461274
1 -6.847607 6.985378 0.016204
1 1.624421 -6.583698 2.877104
1 5.612755 3.959439 -5.988686
1 -5.247537 -2.346228 1.295601
1 -2.360848 -0.394287 -2.963691
1 -4.116801 3.845891 7.817454
1 -4.734878 6.590757 -0.860990
1 3.591690 0.194076 -8.388722
1 5.112901 -0.131051 4.530018
1 0.037591 -8.196611 -5.904662
1 5.720839 8.410534 -7.291830
1 2.243165 6.183208 4.169928
1 -2.838203 2.599996 1.704275
1 -8.429416 3.035939 7.183139
1 2.693201 -1.829305 -4.671889
1 1.948065 -6.975111 -8.116565
1 7.683660 7.464717 -2.900432
1 2.906458 -2.199471 3.454661
1 -2.269816 6.831777 0.760109
1 -0.421350 -1.367285 -1.886920
1 7.215968 -5.530737 0.659553
1 -0.807338 1.172571 -0.546324
1 -5.624397 -5.692784 -7.012840
1 6.686320 6.092124 2.586845
1 -0.272677 3.136600 -5.156464
1 -5.527956 0.769981 -5.152118
1 2.341933 3.005505 7.219341
1 8.342181 2.298770 5.141116
1 8.043595 -3.791528 8.537905
1 3.054524 -6.919162 -2.279021
1 1.654620 3.597775 -5.210281
1 6.072837 -8.594690 3.612941
1 -5.000050 -5.394696 -2.769400
1 -1.487776 3.591164 -2.590940
1 -6.455016 6.619953 -2.854490
1 -5.713839 -8.598125 4.156050
1 2.155527 -4.756650 -1.297123
1 -4.908938 7.517696 -7.247787
1 -2.806211 -7.492189 6.664078
1 -2.919829 2.785495 -7.521269
1 -2.146136 -1.750205 -4.519085
1 7.103317 -0.044105 5.764734
1 6.806520 3.799120 2.988311
1 5.698067 -3.826519 0.048197
1 -3.113741 4.349976 6.022934
1 4.100070 6.135212 -3.215453
1 -2.360635 -5.476424 5.742632
1 6.390421 -4.109971 -6.502982
1 -0.867433 6.770781 -2.640724
1 7.791111 1.687990 -2.756859
1 7.170247 6.762133 -7.586161
1 -3.648477 1.844168 -6.014363
1 8.009090 -7.007201 -1.883667
1 -4.274930 5.757201 0.983735
1 -2.485826 6.457068 -8.061197
1 7.949448 -6.627001 -7.761648
1 3.153806 -7.258311 -0.393087
1 1.024899 4.786621 1.464574
1 -2.289882 -2.365459 -6.526310
1 -0.755416 -0.026459 -6.430923
1 -6.037602 5.015655 0.194666
1 4.057178 -5.959828 -8.298650
1 -6.537711 -1.603931 3.244289
512
step:40000 columns:id,pos dt:0.02 cell:17.235477520255067,17.235477520255067,17.235477520255067 
1 -8.300626 -6.119031 4.834877
1 -1.323463 6.967338 -4.631347
1 4.860904 -7.089414 -1.733023
1 -4.169049 4.778819 -7.071898
1 4.314804 -3.201567 -8.346196
1 -1.118606 8.487093 7.948441
1 -4.327800 6.191472 0.514320
1 5.460336 5.251742 5.996771
1 -7.467038 -0.165097 -4.865353
1 1.629559 4.397055 2.203725
1 -4.811057 4.052253 3.993484
1 3.482219 8.125202 -2.620717
1 0.573240 -3.703431 -6.076349
1 5.508502 -3.247820 -1.876527
1 -2.812769 -3.990778 -6.433972
1 1.166401 -5.694038 -6.236038
1 1.927173 -3.070102 -2.690519
1 -8.436856 4.309258 -0.642713
1 -0.058738 4.365466 0.584219
1 -1.530951 -0.349256 -6.987654
1 -8.476477 6.773478 8.552131
1 -4.186853 8.523411 7.134655
1 -7.075636 6.185028 -6.277753
1 8.030485 2.201357 6.967453
1 7.450789 6.970335 -2.843697
1 -4.407285 3.929641 -0.061804
1 -3.010656 -5.645376 -1.095407
1 0.027057 -5.657088 -7.980805
1 7.545230 -1.770736 5.047160
1 -4.124757 2.445198 2.343996
1 3.109893 -7.003172 -5.580453
1 -5.071168 0.948595 0.055248
1 2.589223 5.167812 6.957714
1 -8.523563 2.472539 -3.757999
1 7.186361 -4.528665 -1.537421
1 3.729247 1.546503 -1.655602
1 -8.600468 2.196215 0.716144
1 4.746614 -8.186882 -6.330361
1 -7.689581 -4.449785 -6.907236
1 -3.197286 -6.152379 -5.903969
1 -0.256508 3.289185 -0.993288
1 -7.078154 -0.101901 7.301067
1 8.460003 4.005735 -5.586358
1 -4.780936 -5.280385 6.988439
1 -8.199827 -0.334510 4.670144
1 8.385853 4.341701 -7.469524
1 -3.413911 7.637591 -3.327285
1 -7.708060 -3.913554 -4.680495
1 -1.210576 -4.398099 -0.852091
1 -4.850470 -2.500788 -2.238915
1 4.639069 -0.991061 -4.540254
1 -8.077112 6.566025 6.522306
1 -1.718825 -0.259598 6.830091
1 6.366355 0.559936 -1.186964
1 0.008977 -1.177478 -2.702526
1 3.917219 -1.747218 -2.456401
1 6.638856 2.692027 -5.255006
1 -3.455939 -8.595740 -1.598184
1 5.854650 -5.834372 4.121012
1 2.067252 -1.781894 -0.876892
1 5.587972 -2.564336 4.291545
1 -7.267257 3.745856 -2.161853
1 5.007105 -0.074124 1.396050
1 2.331986 0.526080 -7.528536
1 -7.596507 4.990335 0.884994
1 0.574215 -5.430272 6.854761
1 7.915670 4.503981 6.873308
1 6.617403 -6.842483 5.977315
1 6.448797 5.698547 -8.282798
1 2.185318 0.326108 4.306889
1 -1.054006 -0.565290 -4.556658
1 -1.210378 7.674947 -1.047230
1 0.787744 0.654717 -5.139648
1 -1.566393 2.765664 -2.788340
1 -4.206391 1.234047 -3.346870
1 -3.685815 3.123049 -2.006859
1 -5.971340 -5.555693 4.790272
1 -4.463033 -6.556012 4.062287
1 0.162281 -1.901455 3.137918
1 -5.840229 1.399854 3.659755
1 -8.277965 -1.503844 6.758182
1 -5.944093 -6.776306 -2.286087
1 -6.425633 -6.796101 2.932954
1 7.467124 3.436468 4.247145
1 6.887342 4.585961 -0.094135
1 -1.876991 -0.876565 -1.082306
1 2.242476 0.126522 6.734250
1 0.486285 -3.392569 7.042131
1 4.479411 -1.030845 7.877120
1 8.193565 6.729130 -0.059062
1 0.369029 -8.425421 4.077824
1 2.401901 -5.167784 3.176902
1 -5.929515 -3.202522 3.827160
1 -4.342136 -1.229782 3.748698
1 -1.732645 5.365678 5.890920
1 4.230470 -6.278884 -3.609769
1 -5.524040 2.378859 -1.752711
1 2.885995 -0.197217 -5.479501
1 -7.081567 -1.898894 -8.569637
1 2.218595 5.900457 -7.261334
1 -3.979410 0.298236 5.632967
1 -0.155878 1.269948 -6.508405
1 -5.884189 -8.605009 4.206057
1 5.977448 -4.228913 2.955010
1 -6.151580 -6.232597 7.324875
1 -2.527066 4.249271 7.547440
1 0.222696 -7.871212 0.059515
1 -1.341407 -5.283116 7.394632
1 -7.788013 8.205016 -0.999642
1 -4.999695 -2.238668 -6.850367
1 -8.463750 1.950461 -7.329518
1 -2.011931 -8.250435 -4.995697
1 2.826491 7.954338 2.117614
1 -3.196665 0.578114 -4.986379
1 3.102744 -1.942059 4.704890
1 4.913662 0.266840 -3.122681
1 -0.393176 -4.268760 -4.061665
1 -5.703835 7.978401 -8.103548
1 -3.140446 -3.394302 -1.565009
1 0.360375 0.800648 7.330964
1 4.697980 -2.407373 2.538407
1 -5.994434 -0.843896 5.836260
1 0.275594 5.851192 -4.284639
1 -2.557434 3.335924 -0.069176
1 -6.005700 -8.142032 0.289771
1 6.941598 -0.026137 1.559669
1 -1.996037 -6.259509 1.177763
1 -8.304006 4.766894 4.577435
1 -0.801252 -3.751495 -8.030110
1 -5.204280 -0.233104 -4.481643
1 2.694941 -3.174706 3.042080
1 -0.054220 -7.584051 6.512840
1 0.136266 -5.003905 0.854007
1 -3.231676 0.058888 -8.482708
1 0.485153 7.922703 -8.198525
1 5.458212 5.950665 1.283738
1 0.322966 -4.205551 2.798021
1 -1.525391 -3.103703 7.157151
1 -5.507838 3.861469 -3.045417
1 1.630392 8.482711 5.666330
1 0.833899 3.604884 6.596511
1 -5.211263 -3.524574 -5.011871
1 -1.401314 -5.859039 -4.836135
1 -1.425892 7.784634 2.652110
1 -4.819906 6.093758 8.464962
1 6.981527 -7.055410 -3.435607
1 -3.754543 1.744079 3.982928
1 -5.363576 -0.452043 -7.824939
1 -2.172209 4.709883 -1.661819
1 -2.890923 -7.309087 2.928569
1 6.633025 0.188388 8.398992
1 -5.071689 -2.094226 -0.203768
1 -7.223117 5.807475 -2.402635
1 1.075807 -2.401378 5.364283
1 -3.021655 -4.140475 6.540087
1 -4.067642 2.604661 6.254463
1 -5.843145 -0.660913 1.468641
1 -5.042157 1.626636 -7.038957
1 -4.361744 0.565713 2.275105
1 -1.757640 5.043519 0.260895
1 -5.165091 -3.785677 5.538798
1 0.978956 2.475477 3.446679
1 -2.301824 -1.930791 3.441984
1 -5.926949 2.376015 7.615267
1 4.365200 6.266393 -1.853842
1 -6.750971 3.398979 -7.640479
1 7.789677 -5.463051 0.628688
1 3.939219 4.441478 1.841909
1 -6.208350 3.112826 5.479375
1 3.053055 -7.331671 -1.513523
1 -7.149456 -5.192441 -3.421484
1 6.871768 2.113489 -7.869582
1 1.672169 7.398606 -6.154378
1 -7.430332 -7.215794 -3.994229
1 -6.059114 -4.143824 -1.188457
1 3.463455 -8.357172 7.450350
1 -8.066195 -6.553917 -7.883054
1 5.671882 4.059449 -7.158232
1 -5.961950 5.120914 -0.464590
1 6.866041 -6.501630 -0.767538
1 -1.932295 -0.039790 1.503157
1 6.932418 -1.298857 -4.305773
1 2.714759 -5.798514 -7.874141
1 -0.528511 -1.136250 8.060394
1 -6.399003 7.975169 -2.531498
1 5.558990 8.433725 -4.314610
1 -7.402596 -1.872293 -6.425123
1 -6.208704 5.256054 5.412539
1 -7.778889 -7.940426 6.103759
1 6.141698 3.164372 -3.268029
1 1.861448 4.406603 4.427448
1 -7.491341 7.528753 -4.417655
1 -1.868722 -8.114817 1.426923
1 -1.187581 1.745548 -4.680060
1 1.979817 -1.213122 -3.505144
1 7.070483 -2.604965 1.582515
1 -2.550423 -2.465566 -8.247057
1 -7.669097 -4.632608 0.845127
1 8.072433 -3.644441 -8.358193
1 4.460070 4.471851 -2.957572
1 0.738864 -8.585461 1.749905
1 1.810245 -6.457513 1.709689
1 3.501088 6.110057 5.192838
1 -6.519005 -2.438806 2.022064
1 -6.564827 2.561069 -5.914501
1 -5.173791 -5.219345 -6.642795
1 -1.491838 5.795627 8.373207
1 4.396267 1.491574 5.012430
1 -7.557551 3.269847 2.864087
1 -7.005964 5.714941 -8.001189
1 6.127321 7.979483 -6.246452
1 1.824913 7.245282 3.880363
1 -2.717593 3.039020 -4.071937
1 -3.373634 -7.996181 -6.922606
1 -7.151064 1.575708 -1.012863
1 6.951298 -1.055325 -0.059531
1 -7.897045 -6.579616 1.321233
1 -3.124487 -3.970265 -4.144779
1 4.503315 2.109468 -3.838250
1 4.256447 -0.568989 5.735560
1 -8.382792 -7.357509 -5.766858
1 2.799607 -3.849272 -6.597276
1 -6.950241 -6.087632 -5.644918
1 1.356873 1.161375 -1.536368
1 3.558011 -6.354310 5.001903
1 3.940785 -7.127917 -7.740600
1 -0.037002 6.649524 3.678136
1 0.924336 2.771403 -7.342165
1 5.173058 8.023308 -8.079381
1 -4.730269 -0.466204 -2.286002
1 -1.148492 5.988416 -6.693758
1 6.132901 1.308568 6.899850
1 -0.350388 3.556347 8.133376
1 6.400761 3.488246 8.019984
1 5.455557 -5.106882 -2.695508
1 5.993499 -8.466292 7.101971
1 -8.493477 6.419832 3.108371
1 -3.115099 1.354108 -1.258763
1 -2.565183 6.963631 6.920604
1 4.529806 -7.029124 7.285711
1 7.313551 1.311208 -3.810817
1 -7.264429 4.061742 -4.562667
1 4.332523 -1.689795 -0.271811
1 6.835589 -1.823748 7.987935
1 1.956312 4.087182 0.022495
1 1.946710 -7.456108 3.701440
1 7.630299 -2.315064 -1.795414
1 -3.421622 7.363432 -8.104023
1 7.809802 4.582963 2.524587
1 -1.228605 2.587219 6.091932
1 -1.469437 -4.968365 -2.581167
1 -3.490472 5.328199 -4.126003
1 6.099777 3.808682 1.930582
1 0.551465 -1.937962 -4.641075
1 3.700821 -3.735255 -0.913333
1 0.667299 4.694988 -6.181471
1 8.589103 -5.430986 7.246055
1 -6.742371 -1.786668 -1.448029
1 -0.083023 7.357621 5.954528
1 -8.290561 -2.113554 -4.094821
1 -1.357196 -1.281936 5.198483
1 -0.913158 1.660979 -8.525861
1 7.784993 -2.984578 -5.864707
1 8.326031 -5.717105 2.909503
1 -5.664320 5.798631 -4.076568
1 0.690288 5.588408 -8.202339
1 -7.785089 2.968536 7.869329
1 6.212162 5.108959 3.865561
1 -4.515869 -6.466291 -8.514397
1 -5.946784 -5.641019 1.216872
1 -5.041823 -2.093365 7.602877
1 -4.733928 0.449823 7.589386
1 8.546333 -6.166271 -2.163801
1 -0.457872 3.964988 4.466435
1 6.032598 6.697127 -0.631739
1 2.650217 5.198634 -1.838155
1 4.742417 0.709744 -7.374381
1 2.687531 -2.191610 7.003523
1 3.572517 8.514873 5.518830
1 -6.567351 1.702768 -3.288771
1 0.474203 -8.594041 -5.290748
1 -1.384291 1.946980 3.991766
1 -0.717683 3.470403 -6.237591
1 4.990203 -3.025650 6.470789
1 5.725426 -8.331949 3.775108
1 -7.104982 -0.281485 -2.580574
1 2.421936 1.102088 -3.862587
1 -4.777445 5.391564 -2.214057
1 -0.622696 -2.254392 0.590462
1 6.569208 -7.581243 2.051156
1 -7.535751 0.022651 0.351963
1 -2.760781 5.719734 3.988378
1 7.398804 6.177149 4.853452
1 4.490965 -1.351239 -6.667523
1 1.036418 6.082965 -0.746834
1 -6.576150 7.714772 6.131100
1 7.965117 -4.298190 4.229169
1 -2.680233 0.200370 3.674327
1 -2.118515 -5.188758 3.332210
1 3.884471 -0.140050 3.566667
1 -1.762877 -4.050878 1.729180
1 -6.776492 -4.354494 6.957260
1 -4.290979 6.010191 2.567664
1 7.790856 -7.876474 3.680686
1 -7.082644 4.920101 7.226219
1 5.434748 1.301714 -5.574280
1 0.502235 -8.136738 -2.113660
1 -3.066138 1.489028 0.699637
1 -2.962364 -2.806498 4.729425
1 -0.212766 5.620860 -2.551147
1 -3.737971 -0.555764 -0.066358
1 6.286541 -1.185527 -2.102812
1 -5.289983 7.218806 -6.441729
1 -0.714990 -3.547399 4.771857
1 -2.646840 -2.447274 0.556737
1 0.859439 -0.542129 0.429545
1 5.226548 -5.512870 -0.451596
1 -2.409475 -7.301487 7.337704
1 -3.678247 -5.207813 4.801644
1 2.845600 8.122097 -8.111426
1 4.001645 -7.587209 2.938765
1 0.224875 1.408246 -3.216590
1 4.353100 4.578466 -0.477795
1 -4.581284 -6.748613 -0.793844
1 -7.528659 -4.439586 2.825642
1 -3.499764 -1.696744 6.723615
1 2.862439 -4.937367 -2.445926
1 3.928415 3.720629 4.192396
1 -0.669953 -6.726694 -1.482685
1 2.397071 7.146854 6.809540
1 6.713202 -0.054668 -6.018754
1 7.296866 5.296735 -1.797798
1 -7.953085 -8.458077 2.633737
1 4.316475 -4.844113 -5.221451
1 -3.127522 -4.437717 -8.431562
1 -4.277546 -4.562483 0.356218
1 -0.491908 1.521568 0.478283
1 5.591887 -6.809005 -5.219596
1 -7.705276 7.660295 4.703287
1 -3.173333 4.170168 1.985631
1 -1.703654 -8.161724 5.039185
1 -0.993685 -5.891849 5.049294
1 -1.982419 -6.038431 -7.623793
1 3.445260 -4.340754 7.820505
1 0.433159 3.420740 -2.949096
1 3.926584 2.836607 -7.555371
1 6.778545 6.766481 7.446398
1 6.990527 2.583087 0.071990
1 -1.330921 -3.061682 -5.245146
1 5.501996 -3.238856 -4.874895
1 5.397218 2.903872 -1.213558
1 -2.584649 -7.502502 -0.480059
1 0.109512 -7.024317 -3.853389
1 6.194148 -5.528560 7.627404
1 2.809104 -1.811190 0.911894
1 7.429696 -3.574015 -3.489257
1 2.495333 1.828202 -5.669552
1 3.117476 3.085764 5.897988
1 1.405960 -4.150199 4.537111
1 -6.769485 7.131678 1.040751
1 1.344873 6.242992 1.984051
1 3.341540 -0.381395 -0.852059
1 -6.568691 -1.116481 3.724244
1 3.913391 5.929203 8.476342
1 7.015874 -3.840387 6.389236
1 2.694309 -4.456408 6.203776
1 -6.477868 3.146071 0.780002
1 7.771342 6.872238 -6.667354
1 -7.013378 -8.313535 7.752557
1 5.251909 -6.108236 1.441775
1 5.437814 6.923695 4.445824
1 8.043567 0.406210 -0.998139
1 5.545615 1.459831 2.845867
1 8.077872 -0.273767 -2.908666
1 -4.180747 -4.702923 2.375795
1 -8.570465 5.957327 -4.424574
1 3.895250 -4.307791 1.517521
1 1.974044 -3.420017 -8.311415
1 4.224868 -5.571110 2.924182
1 1.364991 -6.738178 5.429990
1 5.522270 5.878074 -3.598467
1 5.386560 -5.273312 -7.318917
1 2.283179 -1.421306 3.066097
1 -7.230237 0.771061 2.662784
1 -1.774121 4.418746 -7.945823
1 -0.117060 -2.099205 -1.170855
1 -7.867114 2.083910 4.846731
1 3.163505 -5.588206 0.253906
1 -4.864742 4.059973 -5.133074
1 -5.772190 -3.897143 8.598268
1 -4.084547 8.433101 0.545727
1 7.053308 -0.878138 3.202332
1 -6.256318 -1.780248 -4.193809
1 4.815069 -8.382996 0.221300
1 -5.579507 4.288374 1.878932
1 0.638205 -0.527137 4.848646
1 3.969615 1.381339 7.372979
1 -3.056631 7.377953 -5.991993
1 0.315126 5.447621 6.983129
1 3.669247 4.737095 -6.577208
1 4.627765 7.045367 6.937281
1 -0.635842 6.741071 0.587361
1 1.926805 -7.570556 -3.672045
1 -6.661566 0.999058 -7.715649
1 0.917600 5.812259 5.098628
1 8.269049 0.379340 7.245391
1 -2.563810 -6.321587 -3.159738
1 -7.935588 -3.855554 -2.261008
1 1.910797 -7.777048 -6.958746
1 8.389492 0.349212 -5.965573
1 -3.964131 -7.617274 -4.869395
1 -8.586400 -2.929612 0.048783
1 -4.253603 5.306469 6.255544
1 7.842034 8.117498 -5.041514
1 3.063817 2.405830 2.269961
1 1.452730 7.316062 -3.430930
1 4.994333 3.111564 5.705542
1 0.222546 1.327251 5.197315
1 -3.223150 -2.077689 -4.329753
1 2.466812 1.925935 7.943302
1 2.426845 -1.237179 -7.592384
1 7.116961 4.570342 -4.296850
1 6.351656 6.199519 -5.553276
1 -0.809414 5.330308 2.376401
1 -2.786730 3.517556 4.641280
1 1.578254 -4.895734 -4.054242
1 2.072399 4.083734 -8.512254
1 -7.941498 -3.189745 5.617686
1 0.767854 -5.554004 -2.306629
1 1.918323 7.565330 -1.319678
1 3.984172 6.721349 -6.672017
1 -4.826469 -5.522833 -4.692040
1 8.215892 -0.704561 -7.858622
1 2.334369 5.271158 -3.976921
1 3.373572 6.508880 0.631485
1 7.741837 -7.492517 7.698159
1 2.712339 -8.180087 0.390034
1 8.181321 -5.262183 -4.214246
1 4.856546 1.986867 0.831518
1 4.723345 -5.233773 6.228743
1 -7.516116 -6.613097 -0.788228
1 3.908015 -3.696258 -3.690793
1 2.696949 0.171132 1.314833
1 -6.099995 -7.919062 -4.998150
1 -8.334539 -1.074547 1.774463
1 7.015481 8.019061 5.697297
1 -4.614812 -6.862939 1.614055
1 2.750112 2.586069 -0.175168
1 2.442512 2.879548 -2.792056
1 -5.447194 7.772198 2.491594
1 -0.185624 -6.298726 3.049265
1 5.074443 4.212782 -5.060346
1 -4.748547 -2.596797 1.988385
1 -2.452742 -0.294300 -2.739449
1 -3.453704 2.937335 -8.216162
1 -4.865921 7.672183 -4.658079
1 0.429142 0.184797 -8.050232
1 6.282378 -0.816579 6.209577
1 -0.416528 -7.030320 -6.505755
1 6.691839 -7.525538 -7.752252
1 3.627701 5.678121 3.481208
1 -1.039498 3.049981 2.056721
1 -4.810289 4.187225 7.642253
1 3.002668 -2.447238 -4.962830