512
step:0 columns:id,pos dt:0.02 cell:10.857670466379625,10.857670466379625,10.857670466379625 
1 0.896459 -2.767456 5.423286
1 -2.144673 0.983375 4.888380
1 1.079588 5.028324 -0.732740
1 -4.233117 -4.751531 -1.979343
1 1.542399 -1.403931 -4.307413
1 -2.440500 -5.043378 -4.535711
1 -2.029906 -3.606931 4.165366
1 2.016960 1.978558 1.151488
1 4.957931 -3.743673 2.982252
1 5.391097 5.282880 -4.210121
1 -4.414003 0.222633 -2.491272
1 -1.855245 2.496946 -4.610043
1 3.081670 3.450817 2.575607
1 3.254565 0.035553 -5.289361
1 2.264108 1.131297 2.361745
1 -4.783839 4.617793 -1.593525
1 -1.500293 4.833340 -4.826452
1 0.957346 -3.368520 2.600062
1 -0.383981 1.591332 2.681828
1 4.983873 -0.600927 0.340129
1 0.540364 4.144676 -5.424613
1 0.678104 3.775693 2.665092
1 -4.238609 -1.883107 -1.253496
1 -2.347271 1.118609 -3.454008
1 -0.039392 2.316831 -1.180390
1 -1.029997 0.769852 5.258723
1 -0.852111 -3.045566 -0.385038
1 1.955088 -4.795522 4.666651
1 -5.188193 0.629726 1.780085
1 1.682909 0.487953 0.072499
1 2.072687 2.812538 0.053283
1 4.097741 2.674507 -0.466116
1 -4.572101 -4.156478 3.867865
1 2.847619 2.725491 -1.624204
1 0.312308 2.090289 -2.482748
1 -5.386744 3.100333 -3.147181
1 -1.846029 -2.210237 -2.248688
1 4.155705 -0.412494 -1.357916
1 2.802479 3.164545 1.221413
1 1.320867 1.913790 4.477482
1 1.810120 4.303061 4.982002
1 -4.364034 4.308518 -5.340955
1 -3.563965 0.653165 -3.436720
1 2.511919 -4.873448 2.046030
1 2.669628 -5.215302 3.308103
1 -3.547196 1.322386 0.435828
1 -3.049927 -0.948900 -2.525468
1 -2.161256 -4.912208 -3.324924
1 0.851081 -5.028969 5.200562
1 -4.980440 -0.294497 5.373547
1 2.309902 2.091524 3.224267
1 -5.249824 -3.859741 -2.515630
1 1.702867 -0.060372 -2.855908
1 5.075360 4.289202 -5.184419
1 -3.915401 1.660759 -1.679429
1 -2.487366 -4.881843 3.602455
1 4.023365 0.996777 4.991517
1 4.653443 -2.416324 2.206022
1 2.660007 -1.123288 3.154973
1 -1.346260 -1.426781 -0.798885
1 -3.490939 3.355012 -4.483584
1 3.243161 1.959534 0.018673
1 5.366613 -0.712067 1.634631
1 -1.911483 -2.335041 5.114299
1 -0.529534 -3.174817 3.876031
1 -4.012222 -2.839834 3.300377
1 1.836885 -4.251920 0.688111
1 -0.783398 4.489065 -1.002516
1 0.209588 -4.935946 -3.450517
1 -2.273632 -1.648016 -3.738802
1 -0.334811 -1.890519 1.295008
1 1.913728 3.164589 2.374299
1 -0.320030 -5.229246 -4.673379
1 1.224968 0.589579 1.170903
1 0.802397 -0.387266 0.117825
1 -2.606424 -0.415276 -3.580537
1 1.675120 3.113002 3.915421
1 5.080026 0.489857 -5.228113
1 -1.327029 1.397433 0.125599
1 -0.052528 2.262372 0.861974
1 2.386767 -3.522313 3.975015
1 3.581556 -4.737800 -0.332400
1 2.901149 1.227064 1.115467
1 1.946686 2.945281 -2.597089
1 2.734711 -1.877761 0.594037
1 -1.365293 1.677328 3.876163
1 0.847840 -1.304109 1.419502
1 4.846990 1.595559 -3.277618
1 -3.325975 -1.853532 0.035943
1 -1.929552 4.229140 -2.704656
1 -1.147746 -1.130139 -4.918538
1 -2.265950 1.509150 2.733486
1 -3.652483 5.049698 -4.472601
1 -3.552856 0.916851 4.159937
1 -4.107115 5.274018 4.315407
1 -3.980261 2.765301 0.514593
1 -4.859655 1.600167 -2.950195
1 -2.212406 -1.133024 3.309416
1 1.354816 0.452621 -4.500417
1 1.748582 3.947174 -0.205410
1 -4.705835 5.403312 0.052003
1 -0.727237 -2.880113 -1.944107
1 1.591834 3.930969 1.141532
1 1.257055 -2.892528 4.318399
1 3.609395 0.981579 -2.586795
1 4.722788 4.608757 -0.620825
1 3.314664 -4.048332 -3.377912
1 4.553022 -0.614832 -2.521050
1 4.476199 3.087207 -4.384542
1 3.530878 -1.472461 4.434268
1 -2.163116 3.206606 -0.130927
1 0.293969 3.849012 -1.490236
1 -2.305010 4.778680 2.783229
1 5.101689 2.564431 -2.034138
1 4.619064 -0.845607 -5.085047
1 -4.516757 4.234639 -2.628187
1 -5.285553 -0.323510 -3.701033
1 -4.938731 0.467563 3.734720
1 -1.380626 3.410213 -1.388505
1 4.945709 -3.224270 -4.765065
1 0.358523 -3.528600 1.243985
1 -1.026569 -4.735200 4.220910
1 3.962267 -0.256593 4.338396
1 -4.450402 -0.283111 2.736883
1 5.398932 -1.691025 2.721641
1 -1.412413 5.314598 -1.984835
1 1.271391 -1.014712 -3.041407
1 -3.778701 0.961101 -5.305813
1 1.911449 -3.799184 -2.965623
1 3.610177 3.962062 5.228811
1 2.180476 -1.550966 1.737318
1 0.020604 4.809304 2.157484
1 3.003847 4.492559 1.023032
1 -3.248925 -3.382389 4.469544
1 -1.938956 -4.527439 0.802159
1 4.309698 0.506164 0.249017
1 -3.505292 2.279959 1.992688
1 -3.607356 -2.943660 -1.025021
1 -0.903930 2.070275 -5.154607
1 -3.276887 2.209932 -2.964703
1 -5.356948 3.357971 -1.228971
1 3.186871 -0.187171 -2.664900
1 2.698071 0.667839 -3.609836
1 0.901767 2.781651 1.317682
1 3.946449 5.105163 2.094379
1 4.460210 -2.121125 0.621536
1 -1.639808 2.044981 -0.799801
1 3.696908 -4.009085 3.879059
1 -0.203951 -2.991059 -3.892138
1 -2.297678 1.522310 -2.118857
1 3.074717 5.094581 -0.189685
1 -4.976695 1.602339 0.048814
1 -1.705972 3.531701 1.367106
1 -3.578942 3.388456 4.574833
1 -1.561735 4.683954 4.287776
1 -1.022537 -3.493861 1.445897
1 2.244456 -2.555401 -5.099681
1 -3.828260 -1.418792 -5.199484
1 2.330499 -0.366700 -4.336622
1 -0.855177 2.863125 0.010363
1 -0.721755 2.557299 2.289395
1 -5.230303 0.064227 -0.952417
1 -3.594122 -4.297445 -3.256517
1 -3.363696 0.902049 2.751237
1 2.505637 -2.155616 -2.797602
1 -3.534615 5.271380 0.585711
1 2.142142 -3.780930 5.384339
1 0.627831 -3.738726 -0.860081
1 1.331121 1.051452 3.564673
1 2.963207 -3.686375 -1.483165
1 2.344538 1.480793 -0.552852
1 -1.463651 -2.963155 -4.564624
1 -4.548444 2.569868 -0.996370
1 -3.059646 -2.790020 -4.949140
1 -4.861773 -3.307992 0.805123
1 -2.563941 2.539261 0.962348
1 -0.957752 -4.329948 -3.081600
1 -4.636287 -3.621388 -5.410639
1 4.717552 1.855253 2.342205
1 1.353648 1.996315 -3.675106
1 -4.289155 -4.224020 -0.478045
1 -1.226811 4.265001 0.331271
1 4.101604 5.226417 -3.243919
1 1.053315 -1.031609 -5.335688
1 3.971414 -2.868171 -0.451909
1 0.747217 3.197173 -3.091959
1 -2.825449 -3.058066 -3.705158
1 -0.514716 1.043507 1.232284
1 5.013411 -2.179169 -2.056615
1 -1.448428 -3.750048 2.915927
1 -1.021988 -0.595687 0.580916
1 3.973274 -1.315407 3.118832
1 3.102764 4.244626 -1.921689
1 -3.179692 -4.147527 -0.231654
1 -0.497091 3.871186 -2.627631
1 -2.760377 -3.598639 2.962082
1 -1.274959 -2.712265 -3.288427
1 2.411556 0.743487 -1.691052
1 -0.075701 -0.403358 -5.223708
1 3.432209 2.614549 -5.114364
1 -3.185688 4.304692 -1.958905
1 1.330689 -4.593796 3.336173
1 -2.262473 3.395314 3.861894
1 -1.471443 0.533073 -1.947810
1 1.586602 3.701647 -1.600636
1 -3.134650 -0.392667 -0.416653
1 0.903732 5.100097 2.752896
1 4.930777 -4.482508 -5.240332
1 -0.847935 3.725193 4.993026
1 -2.374975 5.200321 1.513993
1 -4.771920 -2.278722 -3.166974
1 0.216904 -2.084402 -2.768973
1 0.077041 1.277715 -4.102101
1 -4.267311 2.419133 -3.835710
1 3.937932 -0.490046 -4.023245
1 4.607979 -0.222867 2.738033
1 4.840986 4.513765 -2.300294
1 3.963590 3.708442 0.423193
1 0.690899 2.777814 -0.417010
1 -3.554939 -1.860733 -3.840232
1 3.191951 3.946854 -4.043978
1 3.205634 -2.357554 2.070788
1 -0.077089 -5.070471 -0.885907
1 1.040796 -2.732609 -1.780591
1 -4.838741 3.311132 4.354123
1 2.649264 -3.006835 -4.032139
1 1.335643 5.388166 -4.549183
1 5.136167 -4.722175 4.134077
1 3.602016 -3.804733 2.504639
1 1.829257 -4.449630 -1.152402
1 0.685279 2.476246 3.034302
1 -2.960608 -5.245182 -2.020982
1 -1.357073 0.582731 2.225957
1 -1.529565 -4.790648 2.481697
1 -5.109487 2.807737 -4.979758
1 -5.039982 1.042204 4.709995
1 -2.883584 4.074931 0.482958
1 -0.619989 -1.132230 -2.181458
1 3.538017 3.236140 -2.881008
1 -5.356233 4.866829 2.565085
1 -2.247052 2.765071 2.856749
1 -1.563765 2.016669 1.422512
1 0.217518 -0.373697 -3.705907
1 -0.714253 3.756545 -4.368628
1 -0.621356 -4.141354 -0.076480
1 3.494653 -4.869987 1.172124
1 0.488568 -1.859182 4.236557
1 0.154756 -0.497433 4.374531
1 1.672435 -3.014971 -0.208687
1 -4.043647 -4.518715 -4.635800
1 -4.971411 2.484523 1.406317
1 2.638550 0.287998 3.775546
1 -4.459846 -1.586377 4.041504
1 -2.347164 -0.979325 0.715428
1 2.790567 1.515301 -4.699099
1 -3.550111 -0.095685 0.905514
1 4.241640 -5.083789 3.255082
1 0.000370 -5.027766 3.909414
1 -4.149145 2.222863 5.261464
1 0.821783 1.568823 -0.046339
1 1.367849 -3.954508 -4.195917
1 -0.645658 3.216888 3.489453
1 -0.465324 -0.330816 2.837749
1 0.727423 -4.111208 4.418660
1 -3.679610 -4.805128 3.157462
1 4.707511 0.510895 -3.636375
1 1.523709 -2.633377 1.577626
1 4.875655 -3.070752 -3.462990
1 -1.098851 -4.177576 -4.340528
1 -2.741098 2.304269 5.152939
1 -2.437714 -1.244570 -5.056789
1 1.409479 -2.131575 0.352015
1 -1.429900 2.758503 4.724470
1 -4.717519 -2.305661 1.994266
1 -5.077991 -2.060373 -4.502016
1 4.041317 -2.073031 -5.206580
1 5.121938 2.142086 4.002139
1 4.544809 1.608876 0.660912
1 3.598055 -3.376986 0.921239
1 3.015256 -1.917718 -0.759445
1 -2.938073 -1.663213 4.321565
1 -2.720766 -1.860762 -0.893852
1 4.667694 -4.620681 1.850568
1 2.914278 -4.734177 -4.644230
1 0.416318 1.055706 -5.274774
1 1.586719 2.135542 -1.431554
1 -0.331108 -0.353996 -1.043948
1 -2.758309 0.075769 3.610214
1 -5.070072 -4.092892 -3.609525
1 -5.348890 -2.020753 5.315533
1 5.163782 0.700940 -2.148245
1 3.521430 -4.566852 5.020445
1 -0.986426 4.791705 3.378682
1 0.306276 4.404777 4.134816
1 -0.519096 -2.401230 5.198166
1 -2.176577 -3.184488 1.688250
1 -3.043805 1.969482 3.837360
1 3.888010 -2.163295 -3.831925
1 -2.626786 0.975220 -0.652021
1 0.056204 -0.261844 1.447868
1 -2.132607 3.838815 -4.440610
1 -3.537029 3.721572 -0.643039
1 -1.163232 3.831489 2.423997
1 3.370800 -3.008726 4.953892
1 5.380030 4.654077 4.056263
1 1.194615 -0.145559 -1.151718
1 -1.389784 0.169191 3.611171
1 2.052873 -5.068225 -3.613224
1 1.899319 -1.506533 4.469183
1 1.023691 -4.644690 1.947299
1 -0.771378 -4.211276 -1.832547
1 0.194370 2.677713 -5.049935
1 -4.087214 -1.134536 1.283909
1 5.420136 -4.915798 -1.180498
1 -2.040971 -5.169467 5.004366
1 3.543277 4.536726 3.327494
1 -1.338775 1.373882 -4.127653
1 2.860370 5.228182 4.871885
1 -2.566934 0.488108 -4.851352
1 4.580095 3.846193 3.428163
1 2.463604 2.740913 -4.022877
1 4.167793 3.666782 -1.408893
1 -1.531901 -0.765215 2.022144
1 0.125479 5.153097 0.328140
1 -3.863000 -0.671223 -1.586550
1 -2.897157 -2.154667 3.190015
1 -4.180316 -3.175914 -3.948460
1 3.911391 2.643096 3.362152
1 -2.755568 -5.170033 -0.382780
1 1.134229 -1.523561 -1.824991
1 -3.097860 4.408818 3.675496
1 3.820636 -0.985873 -0.197948
1 2.447030 5.028874 -1.396281
1 -4.218404 2.889779 -2.225913
1 1.378348 4.840832 -2.388437
1 3.412103 2.183895 2.012813
1 2.989472 -1.297558 -3.319080
1 -3.078222 2.228516 -0.604797
1 -1.185491 0.265433 -4.268112
1 -2.295744 -3.116225 0.299193
1 5.126028 1.595100 -4.677028
1 5.044490 -1.432770 -3.483382
1 -1.077681 2.490601 -2.225276
1 -4.621266 -3.667113 2.121544
1 -0.099983 -4.261040 2.885067
1 0.912355 1.590801 2.070840
1 4.218211 3.852075 1.838055
1 1.775811 4.723848 3.833227
1 0.833559 0.958255 -1.655974
1 -5.126495 -1.932773 0.616348
1 2.164694 -2.757447 -1.915521
1 0.246701 5.049939 -2.265052
1 -4.938291 -5.202866 5.279916
1 3.929360 5.327248 -1.452705
1 -4.275466 0.824205 -0.908131
1 -1.461112 -2.282806 3.927570
1 -2.901990 0.487171 -2.025077
1 -2.772980 -3.931430 -1.590269
1 -4.806080 1.394772 2.600748
1 -3.937278 -3.250996 -2.418188
1 -1.009599 5.053070 1.426815
1 0.189663 -1.969955 -4.596586
1 3.292908 2.041806 4.431563
1 4.451043 5.239777 0.556571
1 -2.666904 4.755695 -3.553774
1 4.725896 -3.369203 1.443797
1 0.239520 3.917337 0.032163
1 5.413458 -5.257486 -2.778299
1 -2.747112 -0.257170 2.054427
1 -4.390863 2.125086 3.678452
1 1.648472 -1.313902 -0.521246
1 -3.523752 -4.624780 5.042933
1 0.455000 4.367718 -3.727116
1 -4.069411 1.116845 1.629985
1 -1.438906 5.359634 0.087532
1 2.660296 -0.268835 -0.896754
1 1.163265 3.272440 -4.616056
1 2.399705 -1.074067 -1.798984
1 4.652268 -2.018098 4.251549
1 3.653558 1.996341 -1.842224
1 5.246387 -0.668957 3.963156
1 4.711451 0.999714 3.580236
1 4.081062 5.060371 -4.741457
1 1.481003 1.924826 -4.958854
1 2.395065 3.155196 5.239096
1 -3.854527 2.991995 2.828830
1 3.669955 -3.655914 -4.760473
1 1.410873 -0.429800 3.529720
1 3.648318 0.872346 3.214977
1 -0.885919 1.181177 -2.793399
1 4.607307 3.491092 4.712106
1 -0.198747 -2.701308 2.691302
1 3.248483 0.149406 0.222168
1 -2.542861 1.140149 1.329687
1 -3.772331 -2.947433 0.391524
1 -1.855036 -3.067566 -1.198004
1 -5.259319 -2.987777 -0.263711
1 0.310215 -1.218604 2.672120
1 -1.460940 -0.315359 -3.093838
1 -0.441648 5.189771 5.197041
1 -4.018055 -0.570732 4.122106
1 -3.980828 4.012258 1.143978
1 3.913370 0.752968 -1.190912
1 -0.427051 -4.738811 1.437600
1 3.800254 1.095523 -4.244017
1 1.737626 -0.237400 2.065405
1 0.308696 -3.885788 -4.893842
1 1.199411 -2.626033 -3.700189
1 5.041885 -3.403915 4.619930
1 -5.171071 -1.063443 -2.258500
1 -3.693162 5.201546 2.522938
1 5.334145 3.182774 2.808422
1 -3.734543 -1.208072 2.635363
1 2.329944 4.361777 -4.607027
1 4.652554 -3.638700 -1.483526
1 -3.025673 4.816875 5.078311
1 -2.378600 3.685023 5.200917
1 4.300672 2.642027 1.325472
1 2.070268 1.575488 -2.688991
1 -2.970522 1.931281 -4.354126
1 -1.846439 -0.183845 -0.734004
1 -2.358770 -3.697455 -2.654927
1 3.754047 -1.804539 -1.805225
1 3.131828 3.574726 -0.406714
1 -3.294616 -2.638975 1.521960
1 4.333214 -4.534557 -3.930153
1 -4.553106 1.178285 -4.262805
1 4.594268 4.054689 -3.419652
1 0.018195 -2.061393 -1.122409
1 5.222475 -1.510852 -0.695418
1 -2.935128 3.777746 1.922003
1 5.386032 2.938076 0.262225
1 2.224815 -3.659989 2.561267
1 -2.382140 -1.736051 1.707139
1 2.983218 -0.192157 2.207805
1 3.443613 2.179044 -3.544810
1 2.946917 5.111728 -3.149228
1 -1.802064 2.849554 -3.362657
1 -2.655745 2.878660 -2.005223
1 4.219508 5.296532 4.633883
1 3.849224 -2.973871 -2.549074
1 -3.027945 -4.301756 1.886209
1 2.128341 -5.403132 0.198880
1 -4.052680 -0.854310 -3.499353
1 -3.191864 3.650592 -3.262188
1 4.831102 2.294849 5.112695
1 3.760187 -2.644746 3.481672
1 0.955246 -4.562258 -2.108214
1 -1.421567 -2.027779 0.569047
1 -0.968512 -3.833445 5.181491
1 -1.280036 -2.101545 2.496016
1 3.027393 -1.479912 -4.863819
1 2.597234 -4.925096 -2.211362
1 2.636230 -0.679314 4.857483
1 -1.983526 -0.832509 -1.931323
1 1.128019 5.128798 1.138702
1 -0.235656 0.476367 -0.124284
1 2.877060 -3.727203 -0.356970
1 -5.155106 -2.604983 3.755805
1 4.784494 -4.326667 -0.082915
1 2.438178 1.193988 4.946628
1 -5.016243 4.199115 0.052970
1 -0.150690 3.586554 1.241512
1 2.264951 4.660895 2.292345
1 -0.051871 0.683490 4.171831
1 -0.113016 -1.436086 -0.092985
1 -2.799092 -0.238369 5.039678
1 -0.057886 2.028149 4.325034
1 2.658654 -2.426683 3.416609
1 5.136875 4.271131 1.151523
1 -1.492868 -0.603962 4.768294
1 -0.595522 1.189935 -1.075580
1 4.127981 0.424493 1.631780
1 3.928675 -1.002492 1.643536
1 -5.134703 -4.777256 1.078332
1 0.759990 0.919356 -3.132134
1 -0.830465 -1.370146 3.888553
1 -5.061415 -4.790016 2.661753
1 1.867977 4.250198 -3.431195
1 -4.417978 5.162483 1.739450
1 1.304931 -1.984109 3.052770
1 3.025115 3.582026 4.035209
1 -4.035541 -0.322754 -4.679703
1 -4.226316 4.179165 3.446663
1 -4.134571 -2.534752 4.972433
1 -4.352475 -0.792138 -0.331308
1 -0.608344 -1.272600 -3.631477
1 -2.251446 4.455202 -0.864625
1 -0.406765 2.554869 -3.784569
1 -4.588123 3.737969 2.016729
1 -5.104610 -2.970574 -1.400761
1 1.543875 0.272906 4.946340
1 -4.146576 5.259144 -3.283389
1 0.268251 -2.691914 0.276330
1 -3.775913 -4.430277 1.039070
1 -1.595270 -4.496918 -1.001291
1 2.398695 -0.480304 0.833660
1 -0.905406 5.114690 -3.284311
1 -4.806361 0.451008 0.424071
1 4.110775 -4.466719 -2.233924
1 0.264751 -3.685282 -2.832340
1 -1.959276 0.306821 0.509237
1 -3.303972 -2.180717 -2.263588
1 0.585561 0.433138 2.670145
1 -2.462098 -3.892061 -4.926388
1 4.989894 1.593103 -1.038195
1 0.455267 3.169233 4.433151
1 0.810583 -4.427863 0.246259
1 2.569672 -3.324160 1.137414
1 -3.777214 5.099598 -0.863856
1 0.223531 0.094879 -2.278611
1 -4.787643 3.999497 -3.972057
512
step:40000 columns:id,pos dt:0.02 cell:10.857670466379625,10.857670466379625,10.857670466379625 
1 1.580339 -2.904993 4.540441
1 -2.160043 0.895586 -4.971583
1 1.226579 -5.062276 -0.478332
1 -5.328114 -4.473894 -0.495005
1 1.641413 -2.873119 -4.906784
1 -2.211966 -3.687976 -2.917925
1 -1.726400 -3.177612 4.678720
1 3.261352 2.758556 1.956107
1 -4.858621 -3.733225 2.040293
1 -5.041840 -4.616377 -2.796127
1 -4.824973 0.421683 -2.904134
1 -2.694866 2.534827 -3.208026
1 4.172507 2.559680 3.204225
1 2.042074 -0.192310 4.378902
1 2.451438 1.352584 1.433248
1 5.346999 3.652817 -1.484046
1 -0.491705 -4.557649 -4.503716
1 1.479900 -1.218328 4.054131
1 -0.051520 1.987505 2.863037
1 5.099900 -0.614702 1.371599
1 -0.507060 4.986309 -4.522796
1 -0.230078 3.351649 3.380937
1 -2.771661 -3.055424 -0.996203
1 -0.876056 0.370618 -3.375710
1 0.974803 2.332961 -1.944777
1 -0.289878 0.777116 -4.689750
1 -0.176092 -1.919845 -0.312455
1 2.897279 -3.659059 4.072104
1 4.686146 0.534952 1.962688
1 3.241487 1.084449 -1.060723
1 1.554810 2.677026 0.031905
1 2.573558 4.889247 -1.197889
1 -3.519676 -4.298331 4.106422
1 4.444514 2.909683 -1.449721
1 0.210914 1.962081 -3.890146
1 -5.139288 1.624871 -2.393528
1 -3.121896 -1.789052 -1.415453
1 5.301156 0.339703 0.037361
1 3.275831 3.878534 1.179384
1 1.700486 2.826390 4.957793
1 2.882791 4.627794 3.572043
1 -3.313862 4.754494 4.819461
1 -3.588276 0.717234 -4.645807
1 2.198200 5.367318 2.227609
1 3.834557 -4.899404 3.175991
1 -3.572316 1.350581 1.106791
1 -3.829440 -0.852730 -2.290735
1 -1.908659 -2.269338 -2.441041
1 1.497025 5.068790 3.753795
1 -4.945820 -0.439244 5.352216
1 2.226679 2.216315 2.606434
1 3.988242 -5.050209 -0.669269
1 1.501720 0.009374 -2.685620
1 4.921030 5.286308 -3.434750
1 -4.344429 1.849116 -3.540059
1 -0.926939 -5.407398 5.144230
1 3.326500 0.267032 3.774363
1 -5.046549 -2.520527 2.506290
1 2.733303 -0.648983 3.029302
1 -0.638058 -0.395506 -0.619334
1 -2.398718 2.402266 -5.078840
1 3.255839 2.070887 0.430512
1 4.840246 -1.750433 2.706805
1 -3.174254 -2.125618 5.220079
1 0.186050 -3.245836 4.087721
1 -4.244397 -3.362436 3.327903
1 0.662938 5.168333 2.208954
1 0.043728 4.859967 -0.381758
1 0.457823 -3.396320 -3.883471
1 -2.502876 -1.140304 -3.574287
1 -0.980656 -1.588540 0.919989
1 0.947664 3.159663 2.308688
1 0.770215 -3.844383 -5.270021
1 0.370332 2.174326 0.620083
1 1.437841 -0.006249 0.268057
1 -3.763691 -0.084008 -3.539344
1 1.573008 3.326742 3.618969
1 4.376205 0.916538 -4.618563
1 -1.540940 0.569237 -0.325156
1 -0.972831 2.058211 0.261277
1 3.532484 -3.152791 2.836649
1 2.559372 -4.596892 -0.398697
1 1.833794 1.297626 -0.055285
1 2.128837 2.868912 -2.318197
1 3.743867 -2.950307 -0.146198
1 -1.141823 1.803690 3.535085
1 -0.009475 -2.489971 1.264515
1 3.340848 1.053481 -3.514118
1 -4.259300 -1.481564 -0.056168
1 -1.749664 4.091897 -2.441899
1 -1.178918 0.275517 5.209524
1 -0.729108 1.508166 1.722055
1 -2.558605 -5.003641 -4.166361
1 -4.415182 0.170123 4.190347
1 -2.475727 3.551341 4.988696
1 -3.871755 2.571396 -0.453277
1 -5.244860 0.154518 -4.320876
1 -3.135060 -2.138438 3.245222
1 2.529533 1.320671 -4.497779
1 1.431969 4.520824 -0.127387
1 5.030055 4.617697 -0.587597
1 -0.642298 -2.388212 -2.686932
1 1.631420 4.285393 1.461161
1 1.231273 -4.060595 3.829470
1 3.800056 -0.301308 -4.038284
1 3.573280 4.051958 -0.933923
1 2.718393 -3.669986 -2.888851
1 4.399901 -1.165259 -4.793870
1 5.333952 3.211198 -3.840174
1 3.168951 -1.110619 4.697179
1 -1.565909 2.269780 -0.881435
1 -0.126372 3.441602 -3.230709
1 -2.860648 4.970761 2.260281
1 4.666146 1.768098 -3.358346
1 4.392861 -1.944357 5.139040
1 -3.801829 4.926108 -3.092494
1 -5.247709 -2.132818 -4.524399
1 4.830656 0.061974 4.133256
1 -0.596658 3.134876 -1.656516
1 5.421357 -4.328109 -4.097137
1 1.085259 -2.763937 0.009615
1 -1.275057 -4.312520 3.931782
1 4.564785 -0.276914 5.251904
1 -4.718309 -0.120505 2.552737
1 5.363670 -3.014759 3.882771
1 -2.681191 -4.257989 -1.639147
1 0.248348 -0.933786 -4.993450
1 -3.343618 -0.324858 5.354151
1 1.955057 -2.223239 -3.330515
1 4.284010 4.689054 5.291566
1 1.594806 -0.930515 2.255623
1 -0.736988 5.160180 3.555450
1 3.580828 4.669771 2.536853
1 -2.766192 -3.135110 4.177297
1 -1.611318 -3.893424 0.220339
1 3.954827 1.146306 1.322565
1 -2.589687 2.627102 0.246938
1 -2.793714 -4.161222 -0.123009
1 -2.004935 1.691746 4.570806
1 -3.086151 0.722651 -2.792814
1 4.089402 3.047074 -0.022367
1 4.735885 0.308643 -1.502550
1 2.469180 0.037465 -3.615411
1 1.810344 2.718665 1.297819
1 4.582704 3.337150 2.286710
1 4.848666 -1.922096 0.478200
1 -1.896228 2.500054 -2.072539
1 5.151176 -5.148383 2.011860
1 0.442639 -2.231744 -5.394773
1 -2.246029 1.096425 -2.055312
1 2.445242 5.135086 0.325859
1 5.163968 1.822437 0.547810
1 -1.534288 3.010418 1.054972
1 -3.753528 3.240703 4.105928
1 -2.852815 3.545840 -4.112458
1 -0.862087 -3.316009 1.653106
1 2.680418 -4.984586 -4.525928
1 -4.623270 -1.954025 5.149084
1 1.696532 0.059631 -4.908091
1 -0.110622 3.395947 -0.067631
1 -1.698611 2.392471 2.496716
1 -4.558995 1.199331 0.116454
1 -3.581770 -4.392213 -2.736843
1 -3.372148 0.029020 3.212372
1 3.134919 -1.399231 -1.693277
1 -2.661897 4.079916 -0.114594
1 1.848698 5.044425 -3.965836
1 0.096159 -3.127683 -1.237791
1 1.411725 1.740768 3.425648
1 2.604401 -2.242331 -2.200965
1 2.970934 2.369977 -0.925971
1 -0.738291 -1.821532 -4.073714
1 -5.423619 2.172449 -0.750565
1 -3.580171 -2.133033 -4.257095
1 4.816000 -3.231752 0.441513
1 -2.867118 1.561755 -1.080262
1 -1.089674 -3.669224 -3.406344
1 -4.573713 -3.911101 -5.080881
1 -5.362282 1.734321 2.146343
1 2.595172 2.387657 -3.632198
1 4.682969 -5.158417 0.739562
1 -1.133326 4.241824 0.585658
1 4.610620 -4.436481 -2.377179
1 1.612624 -1.507358 -5.272785
1 4.388031 -3.818624 -0.970198
1 0.867604 2.863357 -3.449271
1 -1.893566 -2.106926 -3.781712
1 -1.211493 0.011885 0.900046
1 4.483576 -1.020408 -2.460576
1 -0.794784 -3.524301 3.313546
1 -1.613342 -1.019771 -0.198948
1 2.933140 -2.070019 2.817282
1 0.983995 4.288385 -2.710009
1 -0.699266 -3.051197 0.147509
1 -1.287564 3.094126 -3.357232
1 -1.533568 -4.184351 2.574703
1 -3.799623 -2.749020 -1.756589
1 3.200331 -0.316615 -2.051123
1 0.722512 0.180263 5.372952
1 2.124274 3.638061 -4.519046
1 -3.546849 4.600684 -1.725265
1 0.922004 -4.270926 2.157372
1 -2.657573 2.564874 3.582647
1 -0.669872 1.361533 -1.452757
1 2.445542 3.366119 -1.067699
1 -4.166587 -0.407050 0.811113
1 1.342882 4.269722 2.942189
1 4.078844 -4.996318 -4.463540
1 -1.542208 3.868410 -4.538503
1 -1.042647 -5.330787 1.504707
1 -4.363034 -3.106530 -2.766194
1 0.251813 -1.076342 -3.343724
1 0.386202 2.117891 5.373912
1 -4.212162 3.496277 -3.512498
1 2.938411 -0.191150 -5.397315
1 4.187499 -0.095261 2.868159
1 5.265744 2.959288 -2.778033
1 4.829847 3.981926 0.781957
1 0.745266 3.496904 -0.918919
1 -3.224525 -2.324339 -2.935168
1 3.544907 3.772856 -4.389122
1 4.466255 -2.423159 1.505638
1 0.538654 -5.322244 -1.748645
1 0.611660 -2.519907 -2.569242
1 4.889084 5.411882 -5.388019
1 2.839307 -3.422665 -4.335911
1 1.034181 -5.021265 -4.574762
1 5.071334 -4.284533 -5.386548
1 2.551104 -3.832648 2.028254
1 1.870747 -4.820169 -1.938364
1 0.516462 2.432321 4.077945
1 -3.067656 -5.360133 -0.512751
1 -2.160582 -0.460674 2.009355
1 -1.716003 4.955700 2.703839
1 5.273772 4.284640 -4.284958
1 -3.958059 1.529615 4.051673
1 -2.847893 3.104420 -1.267104
1 -1.484048 -1.295425 -1.500151
1 3.710433 2.893279 -3.479150
1 -4.624221 -5.341297 1.555937
1 -2.892589 2.579755 1.794953
1 -2.027490 1.319720 0.963251
1 0.526334 0.396819 -3.759891
1 -1.020290 4.827429 -3.299507
1 -0.015552 -4.362106 -0.664563
1 2.452175 -3.653195 0.522250
1 -0.043838 -1.812701 4.288324
1 0.050243 -0.340078 4.504183
1 1.063892 -3.798623 -1.280706
1 -3.344082 -3.386435 -5.195453
1 -4.715755 2.677272 1.011671
1 2.026246 0.775490 2.893560
1 5.398120 -1.331807 4.401664
1 -2.927233 -1.167755 1.082783
1 2.865884 2.486459 -5.255594
1 -3.199786 0.299048 1.622913
1 -4.800794 3.920056 4.104158
1 0.464337 -4.899308 3.465389
1 -4.107813 3.537070 -5.033223
1 2.877978 0.575840 0.483110
1 1.701444 -3.984319 -3.810288
1 -1.681713 3.520298 3.836547
1 -0.702026 -0.008930 2.150560
1 -0.497191 -4.261068 5.231238
1 -2.536987 -4.851807 3.516828
1 -5.100341 -0.933690 -3.719584
1 1.256908 -2.005233 3.145764
1 4.550955 -1.441175 -3.733248
1 -0.655805 -3.002603 -4.569395
1 -3.371720 0.955581 5.072055
1 -2.268049 -0.940552 -4.838223
1 3.653091 -1.247413 0.253924
1 -1.121577 2.872826 4.770346
1 -4.766052 -2.764102 0.957802
1 -4.833747 -2.986806 -3.965034
1 4.116427 -3.004927 -4.832628
1 -5.137695 2.139778 4.177698
1 4.589729 2.495391 1.406392
1 3.277660 -2.763118 1.270368
1 2.705965 -1.867190 -0.561095
1 -3.636801 -0.988279 4.245021
1 -2.859775 -1.455014 -0.247254
1 5.200918 4.319623 3.135227
1 2.401037 4.768218 -2.511839
1 -0.604832 1.567273 4.751171
1 1.943507 1.546987 -1.648188
1 0.528413 -0.843618 -0.634749
1 -2.430691 -1.024057 3.007735
1 -3.896655 -4.544002 -3.857167
1 5.324592 -3.008058 5.232896
1 4.702716 0.312535 -3.064049
1 4.431658 -4.286531 4.142527
1 -1.990733 4.840608 4.343329
1 0.323785 -5.365688 4.861154
1 -2.018226 -2.540420 -4.825279
1 -3.135802 -3.767266 2.644828
1 -1.673096 0.438824 3.244006
1 3.564578 -2.287570 -3.681881
1 -3.181302 1.128810 -0.041263
1 -0.138530 0.958861 0.850702
1 -2.886718 3.511412 -2.418872
1 -1.358706 3.560615 -0.614275
1 -2.779392 3.680739 2.859991
1 4.032483 -2.810802 3.809904
1 -4.636189 -5.384995 4.810867
1 3.108991 0.887300 -2.402845
1 -1.053730 -0.546063 3.873767
1 1.253726 -4.982226 -2.901678
1 1.977023 -3.179729 3.200940
1 -0.420619 -4.780504 2.643947
1 -0.292833 -3.962223 -2.334516
1 0.388328 3.519786 4.874190
1 -4.699567 -1.588176 1.507790
1 -5.117050 5.343544 -1.512648
1 -2.302014 4.966858 -5.081154
1 3.853596 3.864296 3.651239
1 -1.017756 2.243744 -4.656831
1 3.118103 -5.280499 4.599021
1 -2.894694 1.583132 -4.010617
1 4.748199 3.481049 4.368208
1 2.374701 3.810746 -3.247363
1 3.490842 3.612557 -2.312506
1 -1.857629 -2.080791 1.566811
1 -1.011899 -5.195233 0.241415
1 -3.966932 -0.166381 -0.402836
1 -2.104153 -2.818220 2.741101
1 -3.174886 -3.454000 -3.899446
1 4.096099 2.325663 4.942753
1 -3.528886 -5.107571 1.136471
1 1.742194 -0.966176 -3.815352
1 -3.328179 4.851974 3.764668
1 -5.411324 -0.720409 -0.317959
1 1.413416 4.248188 -1.600799
1 -3.539691 1.762590 -2.409179
1 -0.099774 4.356700 -2.128376
1 3.541635 1.422845 2.680956
1 3.021785 -0.963234 -3.234105
1 -3.880565 0.361932 -1.663702
1 -2.107873 0.189844 -3.735629
1 -3.377473 -2.357724 0.812790
1 -5.234515 1.651523 -4.400957
1 2.669715 -1.457863 -4.624360
1 -0.307492 2.033089 -2.589251
1 -3.791087 -4.943671 2.742086
1 0.590302 -3.196211 2.653592
1 -0.183920 2.798748 1.634513
1 -5.063747 2.871797 3.124339
1 2.385362 -4.688047 3.272654
1 0.783799 0.664417 -1.173374
1 -4.603478 -2.689437 -0.396819
1 1.594810 -1.306036 -2.317082
1 -0.813913 -5.081079 -2.167546
1 -4.636478 5.333174 -4.341544
1 3.260917 -5.018458 -1.841312
1 -4.942282 0.803119 -1.167554
1 -1.612283 -1.850718 3.952475
1 -2.338955 -0.558332 -2.440800
1 -4.081649 -3.993822 0.211708
1 -5.244282 1.071865 3.212973
1 4.808161 -3.152262 -3.428436
1 -1.175736 3.753515 2.461484
1 -0.945254 -1.311650 -5.423632
1 3.168272 3.687346 4.853860
1 3.204328 5.418622 1.426171
1 -2.306181 -5.218716 -2.507217
1 4.619769 -3.805302 1.753260
1 0.402915 5.280047 0.875810
1 4.310117 5.002701 -1.969861
1 -3.898136 -0.967447 2.326652
1 -3.734719 2.565866 5.017307
1 2.022788 -0.871319 -0.503287
1 -2.355529 -4.616761 4.900652
1 0.215110 -5.076543 -3.351366
1 -3.678751 1.234399 2.526018
1 -0.915629 4.708813 -1.322601
1 3.421580 -0.239915 -0.530805
1 1.063166 4.446629 -5.187799
1 1.952548 0.172569 -1.382273
1 4.959810 -3.944263 2.938629
1 3.653688 2.131609 -2.264233
1 3.964410 -1.318839 3.666598
1 4.909478 1.153792 4.965084
1 3.668868 4.754173 -3.758493
1 1.354985 2.630498 -4.508452
1 1.961376 4.126559 4.677353
1 -2.731176 1.262333 3.177388
1 3.830350 -4.160208 -3.546929
1 0.238072 0.438239 2.303532
1 4.307351 1.446377 3.659826
1 0.143265 0.713626 -2.485321
1 4.608357 3.315949 -4.961669
1 -0.453529 -2.282984 2.777268
1 4.410826 -1.302472 -0.931821
1 -2.028579 0.988048 1.868526
1 -3.763228 -3.745098 1.415855
1 -1.426377 -2.475972 -1.143956
1 3.562856 -4.260839 0.547516
1 0.388038 -1.178707 1.820172
1 -1.055224 -0.865420 -2.727348
1 -0.990853 4.130576 5.226064
1 -5.418362 -0.737857 3.068917
1 -3.999649 4.230254 -0.513418
1 4.290991 1.477283 -0.242897
1 -0.125245 -4.124337 1.230978
1 3.340448 0.845387 5.269121
1 1.101491 -1.457054 0.690709
1 1.696976 -5.121669 4.860376
1 2.322590 -4.031335 5.315552
1 3.625554 -3.912159 5.209039
1 -5.317488 -0.625243 -1.983921
1 -3.992974 4.422863 2.776851
1 -4.039213 2.644782 2.531826
1 -4.429887 -1.867340 3.644175
1 2.817278 4.682893 -5.134992
1 2.138117 -3.362445 -0.984228
1 -3.472640 -4.752426 -5.332934
1 -2.596170 4.705653 -3.461801
1 -4.845243 3.676098 2.085205
1 1.514761 1.299920 -3.088007
1 -3.855265 2.326360 -4.581761
1 -2.645797 -0.277063 -1.126211
1 -1.457910 -3.585027 -1.570089
1 5.360665 -2.434316 -0.880236
1 2.625824 3.674450 0.328609
1 -2.388197 -3.461146 1.307782
1 3.931636 -3.010030 -2.375467
1 -4.733443 0.891974 5.351035
1 -5.012873 4.576716 -2.549802
1 0.132182 -1.724564 -1.638685
1 5.379342 -2.296628 -2.474383
1 -2.209345 4.071134 1.447576
1 -5.072729 3.457064 -0.127057
1 1.935305 -2.075376 1.845471
1 -3.614631 -2.352935 2.210171
1 2.951405 -0.049817 1.827870
1 4.082698 2.150865 -4.497906
1 4.346299 4.092183 -2.786164
1 -1.444951 1.676901 -3.159852
1 -2.140975 4.740172 -1.100282
1 4.666491 5.181899 3.917170
1 4.080263 -2.213742 -1.437289
1 -2.141180 -4.819241 1.517676
1 1.758745 -4.826679 1.160265
1 -4.435528 -1.646265 -3.225684
1 -4.437311 3.441339 -2.076516
1 -5.181322 2.605170 -5.383482
1 3.685561 -4.524088 1.896434
1 1.344176 -3.460685 -2.613394
1 -2.020626 -2.535391 0.176064
1 -0.852305 -2.738136 5.005167
1 -1.289216 -1.236886 2.513212
1 3.121837 -2.448887 -5.386865
1 3.104199 -3.619614 -1.623160
1 0.887593 -0.146329 3.257579
1 -1.273644 0.210097 -1.775345
1 -0.185861 4.312581 1.972309
1 0.189596 0.549677 -0.189691
1 2.352832 -2.357121 0.432990
1 -4.992576 -4.390172 4.009822
1 3.682931 4.826755 0.149497
1 2.683533 1.410302 4.025993
1 -4.312714 2.208448 -1.567231
1 0.761111 3.780132 0.805672
1 2.738662 3.506466 2.471076
1 0.744520 0.901630 4.288365