512
step:0 columns:id,pos dt:0.02 cell:8.0,8.0,8.0 
1 -1.531905 0.705165 -3.322619
1 1.059811 -2.686389 -1.711735
1 2.071758 0.539730 -2.042747
1 2.215910 2.730556 -3.297716
1 -2.743250 -0.493567 1.941943
1 0.524783 2.414060 3.897417
1 -0.748884 -2.497070 2.440127
1 2.452305 1.599296 3.330295
1 0.306211 0.782195 -0.193010
1 3.675756 3.940887 -2.427620
1 -0.903076 -1.693055 0.403356
1 -0.113703 1.766793 0.598982
1 -2.711734 -3.707918 -1.025171
1 3.015843 2.300925 2.744018
1 -0.454159 3.516223 -1.734058
1 -1.612909 -1.637993 -0.476818
1 -1.642748 1.895723 3.105121
1 0.988546 2.412082 0.172575
1 -3.360330 2.471271 3.503590
1 -3.568588 -3.595354 -0.042979
1 -2.131736 0.732491 -0.333949
1 0.835315 0.539381 -2.114054
1 -1.217755 -1.178714 1.224258
1 -1.533642 2.177080 -2.668163
1 -1.995470 2.513306 -2.010821
1 0.791103 -0.810724 3.841551
1 0.599830 3.949438 -2.824481
1 -3.518695 -2.038087 0.029327
1 -0.800264 0.634752 -3.885954
1 -1.541525 -0.697784 1.842418
1 -3.209652 0.596606 2.463317
1 -0.720240 0.360738 1.989922
1 2.537703 0.741720 0.869925
1 -3.561362 -3.028057 3.529667
1 -2.861130 1.326079 1.417600
1 3.275725 -0.415223 2.833697
1 0.195462 0.914743 -3.738743
1 3.007785 -3.814493 1.649307
1 -0.513567 -3.674140 -0.579792
1 -1.400025 1.353793 0.071935
1 2.361219 -3.489692 2.257514
1 2.007730 3.139465 -0.808244
1 -3.570463 -0.067719 -1.542409
1 -0.883554 2.232780 -0.082112
1 2.668080 1.918005 0.513400
1 0.324563 0.822535 3.437933
1 -3.475177 1.595302 -3.799403
1 0.013769 1.751596 -0.609358
1 3.783625 -0.076653 2.421930
1 3.131861 -0.846032 0.564367
1 -3.074910 0.161807 0.663366
1 2.086087 2.409518 0.035765
1 1.981798 -1.057666 3.331766
1 -3.213442 -0.995557 -2.663552
1 2.710300 -0.640180 -0.397821
1 2.754444 -1.586557 2.754188
1 -0.268803 -2.195441 -1.756535
1 -3.799670 3.797169 -0.869698
1 -0.385051 -0.318992 1.274152
1 -2.433482 3.366220 1.982914
1 3.441126 -2.644911 2.168430
1 2.655284 1.845060 -0.745004
1 3.001316 -1.499504 0.053568
1 0.047811 -1.036232 3.130827
1 2.289218 -1.967756 0.031378
1 2.821498 -0.754296 3.822354
1 -3.252598 0.868408 1.777079
1 3.711086 -1.510731 -2.733662
1 -2.710554 -0.221718 3.483136
1 0.457880 1.316175 2.238192
1 3.225007 0.382171 -1.077195
1 -1.598338 1.353639 -2.028599
1 -1.300967 -0.387379 0.360076
1 2.934021 2.899588 -2.626261
1 -3.269261 0.493834 -0.527282
1 0.181850 -1.981585 -1.219287
1 -2.936243 2.667817 2.603827
1 -2.303732 -0.956897 3.974028
1 3.916854 3.771679 -3.738143
1 -1.464259 1.397283 -1.099647
1 2.783132 -3.568990 -1.391100
1 1.892310 -1.293515 1.206421
1 -3.903927 3.270445 -1.981552
1 -1.749216 3.560381 0.586238
1 -3.115205 -2.511953 -0.958801
1 1.984657 -1.328359 -2.531083
1 3.497472 1.571207 3.771220
1 0.158091 -2.240894 -3.401990
1 -1.920916 -1.826146 1.554847
1 0.083946 2.709175 -2.824895
1 0.873370 -3.646955 1.538735
1 -1.963068 2.098192 1.466867
1 -2.970082 -3.186780 1.965969
1 1.267040 -2.068221 -2.345202
1 2.466753 -3.834136 0.413989
1 0.255436 -3.140818 -3.626783
1 -2.704897 1.942651 -2.759338
1 -0.969957 1.110731 -2.908225
1 -3.070334 3.254981 0.358262
1 -0.612994 2.853229 1.372078
1 1.040073 1.732752 0.894188
1 -3.570524 2.775941 -3.874570
1 -1.333054 -1.879086 -2.925663
1 2.784179 0.024250 0.565543
1 0.897348 3.121735 -0.594925
1 -1.774064 -3.648260 -0.214336
1 -3.055759 -3.899498 0.938707
1 1.653951 0.232162 1.973922
1 -2.063735 0.156798 -2.031700
1 -0.065171 3.991480 -2.844636
1 0.069100 2.688071 0.996590
1 1.384520 2.967172 1.566136
1 0.519404 -2.021368 3.823170
1 2.197008 -2.011282 3.677206
1 1.677146 -2.174190 2.701839
1 2.590294 0.537101 2.000037
1 0.667270 2.478012 -1.099719
1 1.844585 2.510214 2.443692
1 -0.340723 1.693825 3.583258
1 -2.751544 1.910387 1.837222
1 1.657341 -3.643073 1.121388
1 -2.363359 0.450299 0.825331
1 -2.083261 -2.867528 -2.392362
1 0.179575 1.534673 3.229601
1 -0.250181 0.176045 -2.830701
1 -3.821217 3.457048 1.865197
1 1.997727 3.546891 -3.149387
1 -1.661354 -1.268932 0.423360
1 1.418235 0.825719 0.805818
1 0.448172 -0.957679 -0.877003
1 2.627558 3.579373 -1.845430
1 -2.816818 -1.720955 1.594618
1 2.856314 -2.430303 1.799449
1 1.844095 -2.755756 0.938397
1 -2.363177 -3.987305 1.116846
1 0.191858 3.508411 0.416320
1 -3.627725 0.836396 -3.208756
1 -3.488466 -0.935872 -3.785533
1 0.832189 -1.997554 2.995218
1 -3.143170 -0.700847 2.748865
1 3.288706 -3.870141 3.340450
1 3.605769 0.686944 -3.856830
1 -2.539743 3.493533 3.855459
1 3.396131 3.975224 2.314832
1 -2.366880 -3.182791 -1.413684
1 3.949830 -1.088586 0.678783
1 2.104958 -0.979310 2.173312
1 -0.348699 0.990820 0.077094
1 -2.017356 -0.107583 -3.386169
1 1.717325 -1.720572 -0.758333
1 -2.795639 2.256193 0.507428
1 -1.029807 0.317162 0.386992
1 2.779131 -1.737273 -1.275247
1 3.937729 -1.017258 -1.182377
1 0.673576 0.730070 1.979882
1 -0.076813 -3.626683 2.624956
1 -0.027138 -2.362874 0.795172
1 3.868564 -2.036980 1.291624
1 0.759383 -1.924614 1.434452
1 1.926045 -3.556674 -0.777800
1 2.914870 -2.834349 -0.489030
1 -2.455520 -2.656797 -3.106122
1 -0.712003 -2.584386 -0.506051
1 3.037748 3.151408 2.031409
1 1.404833 -1.403635 -3.309272
1 1.222732 3.090705 -2.369051
1 -3.485157 1.529043 -2.396752
1 -3.858269 2.353317 1.635438
1 -3.590804 -2.425673 1.781941
1 -2.764214 3.482119 3.224153
1 0.558848 1.812055 -2.136522
1 -1.117909 -0.628877 -3.607006
1 1.729888 1.537885 0.084119
1 2.019882 -0.534913 -3.814028
1 3.799996 1.612129 3.003415
1 -1.851534 2.517655 2.242434
1 -0.571601 -3.101223 1.675426
1 -2.138229 -2.648326 2.786239
1 -1.271926 -1.086826 3.383145
1 -2.288928 1.047581 -2.516478
1 2.343126 0.725879 -0.853496
1 3.322221 -3.901706 -1.052065
1 3.492333 -3.467729 -0.102926
1 0.998693 -2.954724 -2.817218
1 1.883500 1.255828 -2.106927
1 3.234448 2.959986 2.834439
1 -0.944811 3.833750 3.033261
1 0.205151 3.243104 2.969962
1 1.832297 2.320013 3.964933
1 3.474691 -2.347276 -1.170770
1 1.715207 1.372689 1.498029
1 3.010243 1.019899 2.731568
1 -2.588626 -1.806473 -1.333376
1 3.726089 -1.861167 3.108612
1 -2.629486 -1.690924 -3.504774
1 3.451826 2.271416 -1.755505
1 -3.926164 2.283671 2.392640
1 2.485021 -2.904426 -2.821708
1 0.726109 -1.452485 -2.628653
1 1.240343 -1.238365 3.254481
1 2.709413 -0.087549 1.790911
1 0.837935 2.197307 1.515315
1 -1.460835 1.417443 2.067610
1 -1.228985 -2.776523 -2.264951
1 -1.409029 -0.988708 -2.461781
1 3.048489 1.232412 0.645045
1 3.767662 1.199073 -1.239134
1 0.815985 1.179524 -1.520835
1 -2.070769 0.218641 2.551995
1 2.161221 -2.559296 -2.100403
1 -2.676377 -0.910568 0.264465
1 2.865232 3.803970 -3.431036
1 -3.672526 2.375318 0.936110
1 1.850948 0.328318 -3.153645
1 1.291029 -0.725918 2.369800
1 -2.853643 1.185695 3.710230
1 -0.816980 -0.208589 -0.694340
1 0.905073 -2.332230 -0.996523
1 2.475229 3.131225 -0.444813
1 -0.689740 1.228844 -2.271121
1 0.060988 -2.502666 -2.510097
1 1.394554 3.923390 -3.913053
1 -2.637172 3.796710 -0.159811
1 2.879215 0.578387 3.325970
1 -2.472823 -3.406042 3.005160
1 0.402049 -3.587819 0.433383
1 0.895512 3.377364 0.821446
1 -2.311230 -2.028331 0.456322
1 -3.693878 -0.274342 1.623186
1 1.336472 3.578594 0.048834
1 -3.764708 -3.539593 -1.570930
1 -1.219423 2.112813 0.887939
1 -1.099401 -3.235417 2.700705
1 -0.537009 2.066623 -3.430940
1 1.221693 -0.336753 -1.186985
1 1.552199 1.371040 -2.977523
1 -2.438738 -3.041877 0.217165
1 0.100331 -0.482697 -0.209910
1 -2.475788 1.966052 -1.131061
1 -0.959917 1.225707 2.567802
1 1.496124 -0.493637 -2.301459
1 1.777118 -0.271882 1.124015
1 0.195718 -3.329812 0.884725
1 -0.451546 1.759738 -1.519508
1 -3.332151 -0.021221 3.748111
1 -1.879803 2.691806 0.158300
1 -3.265816 -1.830193 3.453568
1 -2.631069 1.260241 -1.061342
1 -2.102818 -0.951035 -0.768164
1 -3.369534 3.760773 -2.987200
1 0.789414 0.953924 -2.907468
1 -0.052910 1.596146 -2.828328
1 -1.005339 -2.456012 -3.192260
1 -0.789889 -3.274177 -3.944078
1 -3.862518 -0.983283 2.547808
1 -2.356857 1.713896 -3.457914
1 0.965008 3.366740 3.961085
1 -2.778278 3.097093 -3.263813
1 3.877161 3.525639 0.823216
1 -0.727951 -0.238365 -2.455580
1 -3.985633 -0.053416 3.569390
1 -2.352015 2.298768 -3.621569
1 0.584300 -0.196716 -2.543824
1 -0.463231 -2.035414 3.237377
1 1.437038 -2.936311 -3.370247
1 -1.677746 1.202112 0.966111
1 0.872132 0.075101 -0.390116
1 -3.929872 -2.460713 -3.354079
1 -1.365277 3.785509 -0.428760
1 1.067356 0.471777 -3.658498
1 -2.107972 2.549280 -0.505404
1 0.347620 -3.335906 -1.643541
1 3.282046 -3.469534 1.082525
1 2.710080 -0.402105 -2.421956
1 -1.299143 0.459863 3.216601
1 2.391616 -0.546145 -3.096731
1 -3.053166 -2.777819 3.394950
1 -2.841422 3.884034 -1.835365
1 2.053928 -3.291501 3.718267
1 -2.185084 2.467678 3.289953
1 0.745453 0.173344 1.135446
1 -0.187197 1.281881 1.546371
1 -0.010044 -0.094401 -1.435203
1 -3.357765 -2.085341 -3.574050
1 -1.297603 1.247574 3.723447
1 -0.719626 2.879750 -1.061220
1 0.248076 -0.326117 1.923792
1 -3.799319 0.656337 3.162586
1 -3.682868 -0.920020 -0.045362
1 -1.463686 3.144236 -3.438629
1 1.474075 0.789242 -1.111021
1 -2.195831 3.395404 -1.087423
1 -3.797043 -1.763526 -1.722015
1 2.252427 -0.488000 -1.404665
1 -1.695345 -3.179814 1.187986
1 2.930660 -0.786818 1.408651
1 1.077609 -2.519594 -0.022121
1 1.649775 -1.279487 0.380688
1 -1.358647 -1.526983 -3.860832
1 -3.592311 0.754902 -1.717577
1 0.063156 -1.143829 -3.226360
1 3.165760 1.034895 -3.125492
1 3.822810 0.181371 -0.238550
1 0.917840 1.998841 -3.487151
1 -2.889244 0.732416 -1.844576
1 -0.300334 -1.416059 -0.379573
1 -1.460512 3.106188 1.222695
1 1.278828 3.057635 2.657366
1 3.526933 -0.535642 -1.045687
1 -2.858448 -2.681800 1.040383
1 -1.487555 0.022183 -0.985620
1 2.866022 -1.726205 -2.230903
1 -3.248719 -1.703594 -2.359894
1 2.631927 -2.653727 3.339302
1 -2.759308 3.002352 1.303497
1 -1.200665 2.240496 -3.842984
1 -0.710195 0.893209 -0.692418
1 1.531716 -2.030237 -3.831313
1 0.391982 0.070889 2.699456
1 -1.924598 -1.997580 -1.878208
1 1.853825 -2.968875 -0.416362
1 -1.439185 -2.787205 0.317000
1 -3.145207 -1.199603 -0.941847
1 -0.364649 -1.766195 3.921893
1 3.715166 -1.011529 3.727067
1 0.327615 -2.573771 2.265493
1 3.353332 -1.360926 2.000071
1 3.548004 -1.866474 -0.504199
1 1.485987 0.852932 2.670469
1 1.881393 -3.380864 3.046010
1 2.910833 -1.957761 0.851002
1 -0.399986 -1.391402 -2.544905
1 3.855402 3.165947 -0.087546
1 2.567793 1.557430 1.654896
1 3.454913 -2.639197 -2.175404
1 -2.622749 -0.978952 1.022621
1 -3.063736 2.408235 -1.774612
1 -0.274198 -3.448919 -1.566845
1 -0.868949 0.278059 -1.742111
1 -0.773437 -2.234125 1.621007
1 -3.792344 2.302485 -0.806229
1 -2.197910 0.156374 -1.190609
1 0.688300 -3.360757 -0.424074
1 -3.342476 1.055722 0.673657
1 1.024132 -1.233899 1.859485
1 3.532461 -3.215241 -3.270978
1 -2.762066 -3.607541 -3.907497
1 2.161606 3.476331 1.293174
1 2.747580 -3.690968 -2.347568
1 -1.528008 -2.608332 3.676627
1 2.395449 0.880192 -3.437222
1 -1.412837 2.156365 -1.103893
1 -2.308689 0.614303 -3.837313
1 -3.217391 2.336710 -0.315712
1 -3.063810 -0.379863 -0.343522
1 1.857635 2.532960 0.867811
1 0.843648 2.217617 2.809274
1 -3.691464 -3.236827 -2.739820
1 2.110352 -0.443211 -0.098489
1 1.554974 3.416968 3.416938
1 1.403560 -3.815397 -0.126236
1 -0.933070 -2.759866 0.602271
1 -1.839707 3.771331 2.733346
1 3.254889 2.228748 -0.417051
1 3.850431 0.293109 -2.365619
1 0.426756 -1.602301 0.084290
1 -2.117326 -2.422166 -0.619256
1 -1.149316 -3.452486 -1.557754
1 0.758927 3.615431 2.135043
1 -3.541123 1.148244 -0.264483
1 3.744618 2.129766 -3.042628
1 -0.479329 2.351855 -2.112136
1 -1.517884 -3.022371 -0.950793
1 1.208338 -1.008569 -0.108278
1 3.486404 2.058351 -3.792862
1 2.590183 -1.898843 -3.305194
1 -1.906254 -2.487543 2.007762
1 1.021200 -0.417355 -3.511411
1 -0.009641 -2.599652 -0.330100
1 -2.324610 -1.535524 3.238740
1 -2.992957 -0.302084 -2.996731
1 2.639706 -2.742346 -3.589900
1 0.009455 -1.352085 0.909735
1 3.342025 0.945915 -0.288853
1 -1.906595 -0.297823 1.298570
1 -0.892331 -0.570768 2.442298
1 -3.197549 -2.065340 0.114857
1 2.119635 -1.818991 1.797377
1 -0.181913 3.711364 3.801089
1 -1.653694 -3.909031 3.635363
1 1.708789 -3.652821 -2.962311
1 -0.003010 2.627234 -0.351289
1 -2.411828 2.947378 -2.183955
1 1.913904 3.774701 2.229082
1 -1.041080 -2.073751 -1.461381
1 2.842416 3.210348 0.641006
1 3.026500 2.912703 3.973632
1 -2.256886 -1.450574 -2.791230
1 -3.505751 3.859351 3.368281
1 3.062124 3.799950 -0.149372
1 2.682002 0.109552 3.978059
1 -0.732496 2.491029 2.954761
1 0.500076 -0.746977 -1.961201
1 -3.912557 1.837818 -1.804628
1 3.131674 3.065540 -1.241332
1 -2.053912 0.006605 -0.099534
1 1.273814 -1.285980 -1.313009
1 -0.232479 -1.376884 1.737836
1 3.731927 0.476392 1.453811
1 -2.116456 -2.530692 3.980124
1 3.954121 3.236415 3.273762
1 -3.125089 -0.571500 -1.832891
1 -2.073756 -0.855971 -1.740870
1 -3.631521 -2.845709 -1.683090
1 -2.536365 1.535032 0.131648
1 3.018719 1.184494 -2.376959
1 3.574456 -0.015339 -3.135529
1 -3.541158 -1.147962 1.385029
1 -3.131011 -3.337562 -3.372280
1 3.752295 -2.523427 0.475028
1 1.934704 -2.784635 1.867319
1 -1.823912 -0.231349 -2.654859
1 1.025816 -0.733053 0.802160
1 -0.143032 3.406695 1.764906
1 2.784665 2.344182 1.671457
1 -0.643527 3.949498 0.368301
1 -1.336722 3.004043 3.656679
1 3.280411 -0.994168 -2.123795
1 -3.369533 3.121018 -1.048185
1 -3.081029 1.652710 2.631831
1 -1.282548 3.955178 1.412479
1 0.524893 -3.570017 3.675053
1 2.561883 -2.866037 0.570801
1 -1.724069 -0.218967 3.356484
1 -2.057160 0.575155 2.099095
1 2.013272 2.177877 -1.678900
1 -0.051514 -1.274631 2.319121
1 0.115991 0.795249 -1.561388
1 1.553485 0.675139 3.509832
1 1.866187 3.079752 -1.829133
1 -0.341255 -3.014558 3.557438
1 0.797053 -2.586086 1.897024
1 3.685405 -1.984552 3.586579
1 -0.067780 2.455407 2.247955
1 0.941323 3.029536 -3.174374
1 -0.616302 0.149583 2.991336
1 1.468131 -3.623557 -2.068292
1 1.850868 0.456700 -0.052511
1 -2.443682 1.185266 3.223316
1 2.404701 2.829180 3.428288
1 1.438728 -3.660940 -1.464253
1 -0.641040 1.902043 1.910306
1 -1.088470 3.195325 2.428837
1 1.160950 -2.842575 3.166859
1 1.840155 1.707773 2.357218
1 1.021712 1.325709 -0.443791
1 -3.648350 -3.392005 1.046868
1 3.219074 -1.604216 -3.543943
1 3.743342 1.319687 1.138641
1 -0.515940 -3.766433 1.704343
1 -0.143192 -0.568828 3.914327
1 2.174265 1.702033 -3.639579
1 2.963352 0.190455 -1.734647
1 2.015387 -1.267515 -1.312864
1 -0.118036 2.977078 3.830392
1 2.789651 1.575660 -1.509369
1 3.819662 -0.711564 -3.035159
1 -0.574798 -3.493687 -2.759033
1 -3.530079 2.657174 -2.752570
1 -2.511266 -3.889118 -2.594927
1 1.581958 2.061820 -1.132355
1 0.881604 -3.747873 2.554503
1 2.316067 -0.029829 2.994535
1 -0.462472 3.231081 -3.192205
1 3.889145 -0.122386 0.601000
1 -0.960354 0.723066 1.320130
1 -1.582710 -3.477158 -3.226821
1 1.147315 -2.445222 0.748085
1 -0.843992 3.017315 -0.069306
1 3.520053 3.234986 -3.140677
1 -3.325263 -2.117246 2.419784
1 0.286503 2.950621 -1.820753
1 -3.102744 -2.655962 -2.278689
1 -3.712669 -3.377460 2.374749
1 1.112491 -0.001572 3.225072
1 3.549859 -3.305904 3.971307
1 -1.657841 3.904342 -2.357086
1 3.304588 -2.939416 2.830476
1 -1.002349 3.261062 -2.415133
1 -0.178488 -0.283454 0.554675
1 3.785887 2.070800 0.218073
1 -2.227337 -3.461561 2.013121
1 0.367245 0.889743 0.802152
1 -3.046314 0.593050 -3.161192
1 -2.231212 -1.201898 2.524569
1 2.756154 2.077022 -2.635813
1 -1.074750 -1.077331 -1.003840
1 1.616213 2.366092 -2.539162
1 3.227059 2.821013 0.985087
1 -1.383183 -1.624514 2.579901
1 2.366229 -2.665818 -1.459868
1 -0.568370 -1.042645 -1.657657
1 1.390122 1.594014 3.486233
1 -3.665053 -2.973393 -0.454866
1 0.088518 3.772245 -0.849374
1 3.608483 1.280550 2.036668
1 2.610882 3.852137 3.283174
1 -1.387469 3.428280 -1.558703
1 -0.339432 -0.161391 -3.853912
1 -1.581046 -3.994226 -3.352244
1 -3.525160 3.776086 2.125250
1 0.838219 3.654837 -1.452723
512
step:40000 columns:id,pos dt:0.02 cell:8.0,8.0,8.0 
1 -1.859684 1.635641 -3.262638
1 1.244940 -2.232847 3.211354
1 1.686937 0.119070 -0.707973
1 -0.060482 1.967413 -3.623953
1 -2.491245 1.484010 3.687496
1 0.112176 2.020202 2.671538
1 -0.636163 -0.649960 0.671762
1 0.376936 1.620293 -2.908930
1 0.197547 1.287049 -0.476458
1 -3.897596 3.054949 -1.634731
1 0.136496 0.826078 0.714688
1 -3.008988 2.747458 1.692223
1 -1.980933 3.137828 1.363399
1 -3.154220 1.670213 -3.523443
1 0.665621 -3.859854 -0.933710
1 -3.610076 -1.254688 1.906988
1 3.587208 2.851461 2.071059
1 2.476683 1.705367 0.996209
1 -2.066598 3.585783 3.082239
1 3.750838 1.852626 1.322049
1 -2.731611 -0.838635 -0.593293
1 3.514721 0.321641 0.578368
1 1.542236 -0.366264 0.749207
1 -0.491241 3.071962 3.326455
1 -0.684614 3.763280 -1.417925
1 1.265049 -1.899005 1.536058
1 2.151193 -3.523196 3.190431
1 2.486926 -2.261660 -1.045207
1 -0.464678 -0.629523 -3.667890
1 -1.334133 -0.607895 1.880739
1 3.990082 0.903617 2.955292
1 -1.481619 0.103106 1.208291
1 1.282193 -0.097652 2.415690
1 3.859736 -0.416217 3.041402
1 3.884835 0.389389 1.655341
1 0.971871 -1.163171 2.440945
1 0.762039 3.084203 3.999619
1 3.187977 2.313944 -0.797229
1 -1.147774 -2.030750 -1.072362
1 0.305648 2.696979 1.526697
1 -3.978691 2.893613 1.165266
1 -2.632229 -3.471747 1.024859
1 1.899524 -0.911796 -2.794695
1 -1.203427 1.837692 0.749374
1 1.379836 1.577302 0.258631
1 0.341047 -0.127124 -3.935133
1 -0.892590 2.369102 -3.888938
1 1.796264 3.684111 -1.054349
1 2.506280 -0.562725 2.327253
1 -3.639189 -1.431596 -0.693628
1 -2.553982 -2.258902 2.230693
1 3.303601 3.754220 -0.078113
1 0.898858 -1.074728 3.984800
1 -3.180426 0.179294 3.381791
1 -2.664766 -1.813216 -0.031574
1 1.342475 -0.926205 1.355001
1 -1.993549 -2.895565 0.087072
1 -3.991999 -3.985585 -0.466917
1 0.088352 -1.753250 0.457116
1 -2.989698 3.505021 0.604057
1 2.657409 3.872701 -1.893552
1 1.987950 -3.091556 -0.754501
1 -3.132030 -2.745010 -0.548753
1 -1.112751 3.830001 2.616037
1 2.062028 -0.333249 -1.828041
1 -3.676609 -0.348646 -3.786628
1 3.909885 -0.448043 0.987033
1 3.068593 -1.775649 -2.346820
1 3.371810 -0.751472 -3.252410
1 -0.534698 0.315374 -3.880965
1 3.700024 1.396817 -0.743513
1 -0.684245 1.384607 -1.124756
1 -1.085138 0.062810 -0.120982
1 -0.434016 3.314352 -2.756348
1 -1.671567 -0.069711 -0.862091
1 0.252613 -2.225638 -1.937447
1 -1.632691 1.032706 3.291445
1 -2.426174 -1.560989 -3.415178
1 3.448142 3.834184 -2.542487
1 -0.552500 1.708301 0.286007
1 2.484469 2.832686 -2.952468
1 -3.074366 -1.113390 0.609615
1 3.051859 3.762434 -3.049825
1 -0.864491 3.163515 1.129313
1 3.238767 -3.151128 -0.507319
1 2.163657 1.526228 -3.579514
1 0.851662 -0.100442 3.045202
1 0.740084 -1.378418 -2.711568
1 0.684180 -0.357595 -0.231869
1 -0.067113 1.301639 -1.825833
1 1.179077 -3.031342 2.925174
1 -2.348847 0.891545 0.900512
1 -2.305263 -2.213217 -0.725875
1 0.280133 -2.082580 3.323261
1 2.552953 3.756036 0.146772
1 1.667004 -3.181932 3.969714
1 -2.830153 0.710313 -3.292722
1 -0.608464 2.128827 -1.091372
1 -3.995722 2.885196 -0.354008
1 -0.846548 -2.529747 -0.224161
1 -0.267543 2.023311 1.279091
1 -3.980034 1.999782 3.919108
1 -0.646135 -2.663756 -3.035145
1 2.992075 -0.494290 1.333955
1 0.063704 3.967189 0.950737
1 -0.865471 -3.623400 0.496306
1 -3.325179 -2.800295 0.746710
1 1.158144 0.865767 3.356625
1 -0.369033 0.349670 -1.490049
1 -0.418064 -3.187042 -1.402807
1 0.570723 1.652425 1.987928
1 1.977873 1.827486 2.878008
1 -1.674302 -2.804195 -2.844504
1 1.407325 -0.867830 3.525274
1 3.931092 -3.017489 2.502805
1 3.550125 1.069798 1.195699
1 0.358083 3.829122 -3.643938
1 2.551722 2.209504 3.447204
1 -2.705547 2.634144 -3.840548
1 -1.215459 2.186685 2.041265
1 1.949636 -3.914601 1.962216
1 -3.447235 1.188896 0.341706
1 -1.622038 3.992297 -1.985770
1 0.012977 -0.182391 -2.593346
1 0.053245 0.052671 -0.643955
1 3.675851 -3.092565 0.381585
1 1.909062 2.609225 -2.094641
1 -3.041002 -3.452131 2.057302
1 1.609004 1.321510 2.375384
1 1.772228 -0.718551 -0.005501
1 1.611877 -3.988305 -1.679758
1 -3.370515 -2.176461 2.592067
1 -3.577804 -1.487960 0.639181
1 1.226893 -1.740075 -1.444447
1 -1.346895 -3.595486 1.517472
1 -0.840341 -2.939617 1.622364
1 3.538467 2.294221 -3.159850
1 -2.702219 0.099838 2.800119
1 3.793616 -1.164156 1.723787
1 -2.490855 -1.009771 2.883625
1 -3.560056 3.871299 3.488641
1 2.974413 1.679554 -2.762995
1 -2.024120 2.527917 3.477329
1 -3.937506 -3.508290 1.258500
1 -1.886463 -3.113899 -1.094119
1 -2.600418 0.127864 -0.450260
1 3.368352 -2.823837 1.547622
1 -1.022009 -0.428014 -1.273260
1 -1.304599 -1.357709 -3.942626
1 2.200274 -0.624445 -0.673059
1 -1.720449 0.664894 2.372439
1 -2.041926 -1.950307 2.564890
1 3.770284 0.834617 -0.618733
1 2.185750 0.243083 -3.028689
1 -0.663489 1.984322 3.489042
1 -1.559245 -3.567830 -3.168023
1 1.216773 -2.940003 0.739069
1 -3.436379 -0.968884 2.674526
1 2.678240 -1.713251 1.221052
1 0.923655 2.530074 -2.585640
1 -3.783478 3.867225 0.642863
1 3.051387 -2.104273 -3.332930
1 -2.675122 -3.691714 -1.253553
1 3.285597 3.680339 2.391962
1 1.205011 -0.733193 -2.125937
1 0.285145 2.639255 -3.395201
1 -3.017516 1.487183 3.148740
1 3.282137 1.729195 2.586051
1 -3.496872 2.622570 -0.607341
1 -3.493751 1.806560 1.598820
1 0.879146 2.667340 -1.595594
1 -0.338677 0.463434 -2.361429
1 2.773115 2.515097 0.271835
1 1.106288 1.093246 -2.746340
1 3.903389 3.478350 3.056560
1 -0.726969 2.668603 2.054967
1 -1.210906 -2.005154 -3.811855
1 -1.330423 -2.716517 2.687797
1 -2.139486 -0.644286 -3.579055
1 -1.504749 -0.245608 -3.250105
1 1.969564 0.665401 -2.016823
1 3.584258 -2.033631 0.842715
1 2.993612 0.209952 -0.892669
1 -0.283830 -1.888539 -3.428319
1 3.331555 -0.017984 -1.987507
1 1.942783 0.972646 3.495791
1 -0.653952 -3.563541 -3.650182
1 -0.343688 3.088274 -1.276881
1 -3.792099 0.996557 -3.114410
1 -3.934541 -3.229927 -3.779120
1 0.560476 1.013135 2.578451
1 2.009121 -0.244624 2.117409
1 3.273360 -1.105499 -2.250057
1 3.208967 2.686136 2.971787
1 -1.323066 -1.621511 -2.939810
1 2.109254 2.370652 0.353303
1 -2.348769 -2.997502 3.231505
1 1.443610 -3.320854 -2.890162
1 -1.322318 -1.551234 -1.973993
1 2.141080 -1.536819 0.276013
1 2.453427 -2.589932 -0.083398
1 1.149547 3.406041 2.040405
1 -2.899131 1.473081 -0.609641
1 -0.258312 -0.417353 -1.839229
1 -2.435683 -2.051822 -1.347801
1 -3.570139 0.896600 -1.708381
1 3.469299 3.493578 -1.275800
1 0.942498 0.931857 -1.023190
1 -2.106185 -0.721995 2.530255
1 3.537182 -3.512924 3.016934
1 -3.363610 0.094310 2.266137
1 0.850613 3.828269 2.755209
1 2.659050 0.999151 0.254956
1 2.622665 -0.520824 -2.437541
1 2.723526 -0.858461 0.744292
1 -0.992747 -0.682576 3.578169
1 0.731345 -1.284627 -0.404323
1 1.156504 -2.757992 -0.894169
1 3.800484 -3.507537 -1.698449
1 1.703940 2.820620 1.377299
1 -0.651467 -2.076681 2.929356
1 1.495965 2.932044 3.399069
1 0.465786 3.702058 -2.179413
1 1.004855 0.680201 -3.770235
1 -3.182073 2.833299 -3.262577
1 -0.824045 -2.656574 0.198370
1 2.596234 -3.878269 0.941822
1 0.601443 -0.714965 0.564373
1 -3.646831 -2.521737 -0.006849
1 2.069191 0.283586 0.844233
1 -3.781598 -3.587239 -1.241589
1 -2.919120 3.451034 2.558726
1 3.896848 -1.435085 -3.161308
1 -1.523762 3.683337 -2.907497
1 0.036352 -2.127618 -1.067734
1 1.380517 1.779969 -3.226360
1 -3.048748 -3.852269 -0.194089
1 0.200998 2.808724 -0.647003
1 -1.308287 3.329884 -0.265599
1 -2.582376 -0.023357 1.775202
1 2.909685 -0.212090 -3.786444
1 1.828658 -1.513658 2.727101
1 1.273729 3.762762 -3.273607
1 0.699870 1.835124 -0.666980
1 -3.923902 0.544705 3.976755
1 -3.622312 2.150168 0.201493
1 -3.662718 -1.980281 -3.534141
1 -1.827097 2.293173 -2.094836
1 -0.741393 0.747607 0.416450
1 -3.732372 3.479874 -2.704088
1 0.854854 0.186211 -1.575913
1 -0.076980 0.675401 -3.344977
1 -2.717473 -2.586780 -2.710821
1 -3.367370 -2.619417 -3.217683
1 -3.573049 1.311156 2.321732
1 -0.849543 3.722506 1.804739
1 -2.083845 -3.438196 2.399787
1 -2.271334 3.320641 -2.639026
1 3.227814 -1.397709 0.037731
1 -1.555642 -1.240601 -1.080001
1 -1.805167 -0.150303 3.538403
1 -1.379041 1.901071 2.882122
1 -0.598819 -2.743640 -2.094830
1 -2.404782 -1.910493 3.574977
1 2.903854 3.473242 3.854836
1 -1.899379 1.898953 1.151137
1 2.583296 1.546428 -0.457190
1 -3.151396 3.652323 -1.911201
1 0.647598 3.319127 -0.976891
1 -0.792993 1.405355 -2.762660
1 -1.473778 -3.872210 0.606492
1 2.820125 0.162554 0.059828
1 1.213233 -3.701751 1.294826
1 -2.209362 1.452621 -2.659528
1 -1.153114 -0.277032 2.415594
1 3.176847 0.175273 3.284026
1 -3.404297 -0.886971 -2.758105
1 -3.485069 2.880013 3.934321
1 0.819066 -3.641606 3.909108
1 -1.231273 1.441710 -3.892082
1 0.911663 0.521983 0.160870
1 -1.632756 1.199380 1.876287
1 1.878053 2.511700 -0.847177
1 -3.639765 3.664182 1.723889
1 -0.539103 1.463458 2.458778
1 -0.267830 -3.692365 -0.544889
1 -0.713262 -1.196700 -2.494960
1 2.257889 -0.127839 3.509835
1 3.024660 -1.353544 3.925227
1 0.516575 1.569956 3.673640
1 1.774566 1.187804 -0.943459
1 -2.899394 1.996842 0.875949
1 -2.332157 -3.326476 -2.148710
1 -3.178027 0.179901 1.032973
1 -0.356467 -0.424019 1.336816
1 -2.085524 -0.393827 0.920990
1 0.936401 -3.705686 0.028716
1 1.359033 -2.010162 0.276664
1 -2.309703 -2.730981 -3.794448
1 -3.021318 -1.095046 -1.599741
1 0.247263 -0.798065 -3.147208
1 3.214783 0.355173 -3.242140
1 -2.943278 1.026098 -0.953238
1 1.644038 0.101062 -3.876102
1 -3.437589 0.824081 -2.391707
1 -0.506249 -1.314473 -0.759377
1 -1.623268 2.837068 0.658690
1 2.067181 2.447878 2.141101
1 -3.428117 1.891529 -2.334771
1 -1.847953 -1.931670 0.454921
1 -0.449418 0.720577 -0.370108
1 3.473365 0.681105 -2.430424
1 3.877880 -0.927892 3.584261
1 0.122434 -2.839024 2.252117
1 3.581095 1.568097 0.182729
1 -1.449222 0.564709 -3.590069
1 -1.627853 1.015274 0.364898
1 2.528767 -2.607892 3.282941
1 0.648697 -0.357419 1.875164
1 3.370213 -1.893905 -1.283104
1 1.844615 -1.829830 -0.570882
1 -1.385187 -2.854679 -1.777047
1 -2.698379 -1.972949 1.460986
1 -1.285241 -0.268751 -2.581040
1 0.089713 -1.494902 3.682399
1 -1.372268 -2.695694 3.698407
1 2.569413 -0.940728 3.103513
1 2.736959 -0.990814 -1.141942
1 0.992322 0.537709 -2.193418
1 2.432515 3.214158 2.399448
1 3.343393 -0.548604 -0.058513
1 -1.871728 -0.626615 -1.719136
1 1.800435 3.429812 0.886907
1 3.424263 0.168803 2.281574
1 -3.384496 -0.138504 -1.564190
1 -1.161711 0.453719 3.110189
1 -3.744331 1.824718 -1.458491
1 0.966863 3.604955 0.347249
1 -2.962624 -0.112227 -3.128635
1 0.378082 0.281935 1.016346
1 -1.488512 3.070592 -1.678010
1 -1.559932 0.828635 -2.475110
1 2.427919 -3.457720 -2.487227
1 3.654360 -0.570649 -1.175085
1 0.484026 -1.611367 1.089838
1 2.760670 -3.634251 2.492399
1 3.838661 -2.726688 3.492304
1 3.186913 1.257092 3.469555
1 2.015987 3.806472 -3.366139
1 3.524183 -1.952453 2.187551
1 0.936832 0.023875 -3.004043
1 -1.956531 2.152284 -0.512291
1 -2.548642 0.449653 3.936118
1 2.506322 0.769243 1.291759
1 -3.657512 -0.320906 -0.640309
1 1.526449 1.045380 1.468646
1 2.681593 1.981556 1.757871
1 1.799633 -2.619284 -3.222543
1 1.891176 -3.575456 0.021397
1 1.435939 3.343085 -2.520936
1 -1.402289 -3.489629 -0.760748
1 -1.854333 -2.979239 1.565993
1 0.452641 -3.650068 3.375634
1 3.286759 -1.933375 -0.288879
1 -2.197491 -2.077839 -2.090475
1 0.515941 -2.281900 -0.113558
1 2.756502 -3.602772 -1.226457
1 -3.704094 -2.153063 -2.344032
1 1.203384 1.978495 1.294600
1 -2.329404 1.446257 -1.763920
1 3.652415 3.471977 -3.670422
1 2.900937 2.954002 1.296150
1 -2.048288 3.537481 -0.181906
1 -3.398538 -0.423704 0.220681
1 1.657745 2.643568 -3.636559
1 2.638569 0.915864 -3.747171
1 -3.642500 -2.408592 1.752371
1 -1.261184 2.033896 -1.561514
1 0.303384 -3.020993 0.056151
1 -1.172834 -1.779366 1.889365
1 -1.442389 0.683751 -1.805740
1 2.664059 -2.353232 2.308206
1 0.202184 -0.910356 -1.152576
1 -3.438308 0.462116 0.002461
1 -0.349199 -0.799566 0.124102
1 -1.743430 -1.406193 1.324425
1 -1.049405 -2.004237 0.784432
1 2.141123 -1.493015 1.637389
1 -1.573541 -3.703698 3.786071
1 -1.022612 2.682002 -2.785277
1 2.359281 3.358622 3.602694
1 1.522946 0.822795 0.100172
1 -2.370587 2.514961 -0.976621
1 3.244228 3.877352 1.331979
1 -3.328917 -2.827414 -1.646020
1 0.794402 2.913417 0.467211
1 -3.411356 2.802066 2.895213
1 2.438516 -2.646222 -2.395213
1 -3.053612 -2.754424 3.470400
1 1.917819 -2.029675 3.674348
1 -2.950277 2.483514 -2.516927
1 -0.256217 0.146182 2.500771
1 0.816973 -3.570341 -2.180403
1 2.556317 1.873516 -1.705205
1 3.316514 -2.512725 -1.835800
1 -1.955718 0.370428 0.066123
1 1.694869 -2.527024 2.203615
1 -0.892948 0.760936 1.631967
1 -3.291036 -3.554991 2.425479
1 3.231646 -2.933427 -3.016792
1 2.864722 2.438770 -3.798798
1 -3.677759 -1.429144 -1.753902
1 -3.869478 -0.268499 -2.257956
1 2.152788 -1.615570 -1.747235
1 -1.905508 -0.874231 0.288753
1 3.814813 2.510933 -2.504621
1 2.091250 1.345430 -2.648487
1 -2.524686 -2.595375 0.896288
1 -2.489650 0.269541 -1.506512
1 -3.038084 -3.721737 -2.649506
1 0.133229 -2.351154 1.372040
1 -2.591858 -1.524622 -2.803476
1 -0.100688 0.986731 3.600185
1 0.304145 3.507859 1.533451
1 2.405135 0.661603 2.589345
1 -0.180847 -3.202045 1.016797
1 -2.635249 2.200770 2.810400
1 -2.536215 -1.077528 3.792309
1 -2.732167 2.717775 0.340079
1 -2.269999 2.069746 2.072520
1 0.059026 -3.707696 2.139496
1 -0.539497 -3.105084 2.879750
1 3.508178 2.825809 0.727424
1 -0.329612 -0.991716 2.913386
1 -2.620800 1.211562 2.272225
1 1.669511 1.806548 -1.443613
1 3.133071 -1.141465 2.372919
1 -0.261636 2.770038 0.371861
1 -0.679172 1.983492 -2.597957
1 1.227089 2.561051 -0.184316
1 -0.052186 -3.632018 -2.985212
1 1.813017 -2.552375 0.935803
1 2.355817 -1.786018 -3.464324
1 -1.890747 3.256957 2.450690
1 -0.777405 -3.708699 3.253712
1 -0.164306 -1.141398 1.895621
1 2.900088 -3.622021 -3.832368
1 3.184824 1.244770 -1.788468
1 -0.529572 -1.727034 1.487835
1 1.840236 3.758054 3.023618
1 0.042612 2.777238 -2.262469
1 -0.521839 3.567403 -0.082123
1 -1.221365 3.076004 3.564745
1 -0.041940 -2.740726 3.973542
1 -0.213510 0.772072 1.691913
1 2.706225 0.534277 -1.264974
1 -3.895507 -2.250886 -0.805143
1 -3.907933 2.221480 2.954749
1 2.825101 0.897248 2.071499
1 -0.080992 3.385174 2.709851
1 1.851727 -0.937960 -3.549717
1 1.234010 2.038219 3.720270
1 -1.666136 0.992467 -0.838325
1 1.206529 -0.944887 -1.117528
1 1.034916 2.546628 2.512248
1 2.761860 3.039138 -0.947320
1 3.022889 -2.933679 -3.994196
1 -2.610379 -3.658099 -3.449802