512
step:0 columns:id,pos dt:0.02 cell:6.349604207872798,6.349604207872798,6.349604207872798 
1 1.463239 1.416182 1.652840
1 -1.366186 0.706869 -1.105812
1 2.054335 -2.706936 1.582833
1 -2.917011 2.531884 1.546039
1 0.739268 0.598049 2.722703
1 0.495392 0.897473 -0.003914
1 0.379315 1.866746 -2.840514
1 -1.567863 0.310784 3.039747
1 0.059352 1.158935 3.111474
1 2.595297 -0.876832 -1.917321
1 1.862883 -1.306300 -3.040360
1 1.357931 -2.573509 -1.623846
1 -0.394645 -2.474679 -1.224007
1 -0.392872 1.286173 -0.194335
1 -3.091135 1.405759 -2.999343
1 0.486126 -2.554952 -2.577533
1 -1.579166 -0.143113 1.855431
1 -0.457789 -2.957415 0.593064
1 -2.432609 1.433000 1.875745
1 0.974014 0.813991 2.023812
1 1.622179 3.138904 1.206382
1 2.595550 2.571982 -0.626012
1 2.202461 2.087233 1.603889
1 1.246972 1.440658 -2.989814
1 -0.136981 -2.467754 -2.197207
1 1.506964 -1.420346 2.289831
1 -1.866292 -2.683506 1.101896
1 -1.110662 -2.893502 1.643457
1 0.005916 -0.736646 -0.439033
1 -2.994352 -2.478429 -0.857460
1 1.156934 0.882400 -2.540925
1 -1.797532 2.331666 -0.291022
1 -2.127257 2.529750 2.467178
1 -2.881584 2.028419 2.993238
1 -1.030697 -0.695153 1.072169
1 -3.019777 0.219134 -0.687661
1 2.678809 -1.923326 2.327759
1 3.130974 0.563613 -1.412377
1 -2.924889 1.029486 0.768505
1 -1.404966 -0.104934 -0.429878
1 -0.453202 1.360359 -1.631939
1 -1.616906 -3.092586 -0.337571
1 -1.333534 -0.002909 -0.088652
1 1.731605 1.314049 2.286473
1 -1.794424 2.105200 -2.402631
1 2.053683 -0.291860 -2.353670
1 2.307657 0.692042 -1.488540
1 -0.780768 -1.893329 -1.323579
1 -3.052543 -1.980118 -0.324462
1 2.224026 -2.918753 1.413531
1 -1.611966 -0.256710 -2.651624
1 1.642700 -1.129175 1.521052
1 -0.861661 2.731728 1.841935
1 -0.197766 -1.175748 -2.144142
1 0.130494 0.800483 2.356113
1 -2.922342 -0.370205 2.418171
1 -1.770097 -2.235741 1.903526
1 -0.356058 -0.335309 -0.860149
1 -2.331694 0.881919 -2.942374
1 -0.917317 1.111577 0.239514
1 2.072461 -2.890560 -1.763495
1 -2.469896 -2.709803 1.346292
1 2.083118 -1.347554 0.724010
1 -0.816443 0.273708 -1.570205
1 2.659642 -1.834048 0.161619
1 -2.515065 -1.551052 0.509027
1 -0.705265 2.831060 1.360700
1 3.052488 -2.523556 3.120357
1 -2.104101 2.949302 1.138033
1 0.316155 2.317846 -0.257758
1 -1.282068 1.371727 -0.760835
1 -0.089679 0.476294 -2.170340
1 0.745884 0.748254 -1.018460
1 1.534285 2.409659 -2.923861
1 3.056624 1.486026 1.673479
1 -2.467814 -2.319452 -2.910026
1 1.120144 0.051932 -0.647213
1 -0.504023 -0.540915 2.705431
1 -1.925249 3.051674 -2.476343
1 -2.746611 -2.036674 -1.650495
1 1.656514 1.043344 -0.137630
1 -1.720497 3.135998 2.474372
1 -2.693099 -0.526425 0.170082
1 -2.961906 1.026919 -0.178737
1 2.725862 -2.218017 1.511464
1 1.440449 -1.594941 0.028361
1 -0.504345 3.057479 -1.938838
1 1.531016 1.824913 1.108507
1 1.888179 2.683333 2.108120
1 2.244047 1.544248 2.989112
1 -2.789383 3.081006 -0.549867
1 0.214409 0.331621 -1.515253
1 -3.121987 2.884003 -3.056326
1 0.693031 -1.755453 -0.572596
1 2.915960 -2.879411 2.289094
1 -1.205651 -2.544150 2.260495
1 0.622320 -1.959225 -1.652112
1 -0.194270 1.772625 1.450218
1 0.159992 -2.095078 0.289922
1 -1.729347 -1.398666 1.486089
1 0.903559 2.081118 -1.367534
1 -3.172284 -0.424891 -2.782212
1 0.450005 0.303160 -1.493088
1 0.695235 -1.567135 2.195902
1 -1.575090 -2.907737 -2.872281
1 -0.467729 -1.781453 1.866921
1 1.253169 -1.925004 -2.141676
1 -0.576484 -1.611140 -1.742478
1 2.030893 -0.872975 -1.530468
1 -1.389487 1.244930 1.314025
1 1.244658 -0.046950 2.522055
1 0.240011 -0.456470 -1.662037
1 -1.059655 -0.953144 2.078960
1 -2.316095 -0.559456 -2.290413
1 2.761576 -1.252185 -3.120775
1 -0.863402 1.108965 1.099110
1 0.301272 0.504155 -2.656827
1 -0.882224 1.305883 2.467033
1 2.164680 -1.982899 -2.060418
1 0.771185 -0.949827 0.447569
1 1.499774 -1.631325 -0.825432
1 1.384801 1.148160 -2.146222
1 3.009291 -0.862408 -1.068750
1 -0.760742 0.664525 -1.047573
1 2.775435 2.893049 0.918788
1 -2.709708 -2.174005 1.674160
1 -1.680296 2.826692 -0.979620
1 3.051349 -1.235957 0.703984
1 1.075983 -1.080872 -1.123164
1 -1.148124 1.638114 2.460088
1 -2.352533 -2.600053 -0.211682
1 -2.577711 2.811897 1.475009
1 -2.879222 1.102619 2.506900
1 2.723055 -2.287345 -2.815478
1 0.553929 0.092061 0.890141
1 2.693576 3.123506 -1.429908
1 -2.375618 0.354981 0.500078
1 0.639091 2.669366 2.694102
1 -2.351807 1.004875 -1.847808
1 -0.133982 -0.591631 1.654525
1 1.235447 1.414031 2.624671
1 1.513323 2.496810 0.021066
1 3.074486 -2.745457 1.866429
1 1.464694 -2.752140 -2.432309
1 -0.623752 -2.325674 -3.152244
1 0.882585 2.432190 1.284675
1 -0.773098 -0.055212 0.558720
1 -1.499719 3.092524 -1.700765
1 -0.608214 0.585708 1.880174
1 0.500893 2.738623 1.625857
1 0.272947 -3.110371 -0.267893
1 2.930678 -1.595313 -2.325717
1 -2.753872 1.665354 -2.022733
1 -0.948272 -0.556628 -1.376741
1 0.642404 -2.009408 -2.854977
1 -2.550395 0.782195 1.168186
1 -3.014234 -0.252973 -2.302267
1 1.200226 -0.374961 1.501342
1 -0.763381 -2.607291 2.586136
1 2.981441 0.953722 3.005077
1 -0.751292 -0.495521 -2.580038
1 2.918493 1.577538 2.373631
1 -1.966608 1.420132 0.236306
1 -1.952733 -1.088240 -0.395886
1 -0.103814 -1.006520 0.864928
1 -2.488364 3.076192 -3.016477
1 2.253735 -0.727037 0.129063
1 -2.042702 -1.251067 -2.839209
1 3.006007 0.758308 -2.174639
1 1.832069 1.878426 0.088930
1 -1.371700 -2.586295 -1.013086
1 -1.068645 1.392396 -2.667776
1 -1.739201 -0.615116 -0.121336
1 2.805519 2.280574 0.084828
1 -2.437193 -1.820512 0.316972
1 0.972001 -0.441090 -0.235271
1 1.422064 -0.137252 -1.414106
1 1.995656 1.602367 -0.492266
1 -0.924735 -2.004481 0.442009
1 -1.443255 -1.710646 -0.290610
1 0.412691 1.583431 2.803223
1 -1.877460 0.745254 0.492090
1 -1.681823 -1.724888 0.634102
1 0.043340 2.329273 2.324688
1 2.004421 3.144761 0.334889
1 2.191977 -0.374627 -0.620946
1 2.395577 0.972363 2.072776
1 -1.892804 3.155665 2.012075
1 -1.614307 0.940138 1.514334
1 2.740969 1.776654 1.527752
1 2.742741 -2.821658 0.363809
1 2.797076 1.905676 -2.442898
1 -2.758844 2.341654 -2.735675
1 2.486509 0.429971 2.114045
1 0.429989 -2.212017 1.292134
1 -2.992456 -2.823187 -2.270156
1 3.163614 1.905396 -1.559849
1 1.931264 2.218176 -1.242046
1 1.069893 1.812853 2.544811
1 -1.867400 -2.301552 0.512275
1 2.834338 0.174690 0.589184
1 2.636999 2.579214 -2.673170
1 -2.451227 0.455249 -0.953798
1 -0.843827 0.678021 2.641646
1 0.193363 1.781413 0.766847
1 -0.744031 2.487229 -2.231083
1 2.528901 -1.692307 2.952340
1 2.644675 2.134706 2.372280
1 -2.613449 -0.206006 1.259300
1 -0.765976 -1.341461 0.611074
1 -0.581077 2.474052 0.718765
1 -2.260111 0.761762 -0.279650
1 -2.425177 -1.294077 -1.894644
1 2.851446 1.268356 -0.574499
1 1.508441 2.578087 0.475055
1 2.217444 0.021271 -1.444695
1 0.309215 2.739956 -1.886094
1 -0.076798 1.742095 0.245631
1 -2.117927 1.397069 -0.133849
1 -0.078548 -2.438733 2.487556
1 1.868919 2.440971 1.742135
1 2.783532 2.824631 -1.804313
1 1.467568 2.943563 -0.447305
1 -2.192156 -2.625463 -1.507477
1 -0.320877 -2.405485 1.467320
1 0.962896 -2.742457 -1.229743
1 1.022249 -1.054789 2.673122
1 0.576540 1.483909 -2.033867
1 0.782873 0.347153 -2.456700
1 2.027990 1.393446 -0.814620
1 -1.098177 2.435601 2.802260
1 1.961410 1.560513 3.065103
1 0.701411 -1.002059 -2.122064
1 1.231964 2.450067 2.330471
1 2.894767 -1.247608 2.051014
1 -1.662184 0.733992 -1.280513
1 1.925958 -0.161574 2.556750
1 2.630313 -2.677917 -0.277737
1 -2.274277 2.194934 -1.475862
1 -0.421140 1.348291 -2.462802
1 -1.844660 1.900756 0.975420
1 -2.022083 2.188039 1.698330
1 -2.200891 1.738031 2.419456
1 -1.862486 -0.552419 0.551493
1 -2.497976 -0.693642 2.545858
1 2.817074 1.050649 0.960781
1 -2.304797 -1.966416 -0.640680
1 -1.466124 -0.916850 -0.909964
1 1.784073 2.761619 -1.005542
1 1.510964 -0.809757 -0.024159
1 -1.394473 -1.487852 2.149334
1 1.839496 -1.106010 1.944687
1 -0.429649 0.268877 2.676290
1 0.884987 2.622651 -1.310117
1 0.035186 1.046331 -0.714377
1 2.325064 2.692249 2.618990
1 0.799159 -2.468800 -0.930307
1 2.950774 -1.040675 1.345646
1 2.169528 -0.522977 0.841237
1 -1.465078 2.059898 1.356651
1 1.828935 2.802471 2.812638
1 -0.541991 1.999188 2.242618
1 1.423770 -0.800998 -2.833896
1 0.927099 2.493433 -2.720978
1 -2.455288 0.317819 3.008992
1 -0.070256 2.676355 -2.951109
1 1.155043 0.034176 -1.849216
1 -1.738288 -0.336579 -1.848946
1 -2.969498 2.489109 2.420326
1 0.670889 -3.063841 1.695101
1 -3.128307 2.778780 -1.960314
1 -2.599862 -0.385819 0.291210
1 2.782135 -1.814071 -1.383582
1 3.031977 -2.383881 0.678018
1 0.513642 1.820819 -2.679386
1 -2.547855 -2.967004 2.574703
1 3.121979 0.271577 1.753243
1 -0.160585 -1.542527 2.920679
1 -0.357855 -0.198411 1.677359
1 2.507139 1.916906 0.753799
1 -0.078008 -0.491328 0.218259
1 -1.793282 0.934953 2.854326
1 0.166726 -2.852701 -1.414132
1 -2.290208 -0.942091 1.834281
1 2.182460 -0.140765 3.148836
1 1.888580 -1.708859 -1.933212
1 2.970158 -1.469966 1.898115
1 2.200766 -1.759616 0.897711
1 -2.498286 -1.736339 2.261356
1 2.867533 2.887353 2.546343
1 -2.751944 -1.171188 -2.460978
1 -2.635706 1.596490 -0.751077
1 1.951713 -2.570575 2.554603
1 0.594087 -1.544135 -0.082314
1 1.395739 -0.771012 -2.074139
1 -0.455264 0.312804 -3.157461
1 1.220336 -2.533803 0.840759
1 -1.234094 -3.002931 -3.148967
1 -3.131646 -2.544208 -1.534725
1 2.195329 3.062921 -3.105769
1 0.357050 2.748677 0.506447
1 0.429869 -1.227607 0.994126
1 -0.817557 1.430111 -1.697906
1 1.872927 -2.501992 -0.099283
1 1.708748 0.388457 -2.964784
1 -2.948671 2.556005 -1.034684
1 -0.370014 0.547979 1.604146
1 -0.094463 -2.292214 -0.767850
1 -1.350563 0.697465 -2.398939
1 2.954097 2.726094 1.268356
1 -2.623269 -0.739211 1.351849
1 -1.528475 0.420538 2.110353
1 -2.885622 2.036071 -0.516003
1 0.405062 0.473770 -0.232289
1 -1.424833 1.820128 -1.264632
1 -0.896263 0.373502 -0.136486
1 -1.646989 -0.194035 -1.438506
1 1.645051 -1.476982 3.134002
1 -0.419347 3.163142 1.793752
1 1.777856 -2.495817 -0.581507
1 0.885491 -0.142942 -3.167641
1 -2.577226 0.060304 -2.451902
1 -2.645139 3.091647 0.250457
1 2.755613 3.029523 -0.670763
1 2.248656 0.555850 0.190824
1 0.455694 1.012149 0.394344
1 1.373799 1.036806 0.336126
1 -1.588794 0.279822 1.039191
1 -0.719030 2.583925 2.974063
1 -2.461279 1.567354 1.175267
1 1.931501 0.424965 0.720884
1 -0.087475 -0.105314 -0.074077
1 -0.649505 -2.961075 -2.118190
1 -0.200066 -2.713528 2.867279
1 -1.793229 -1.827382 2.537245
1 -1.296893 2.504386 -0.043401
1 2.199040 0.479558 -2.683119
1 -0.904367 2.866123 -1.065165
1 0.140386 2.249668 -1.760095
1 -0.310785 1.600419 2.654052
1 2.065180 -1.877927 0.934955
1 2.686104 -1.074450 -2.575364
1 -1.874878 1.798628 -2.293588
1 0.393569 -1.920154 2.859639
1 -1.394695 -2.093074 1.252271
1 1.394425 -0.736352 0.867276
1 -2.305258 0.221358 -0.518458
1 -0.687277 -2.897440 0.111746
1 2.570008 1.799173 -1.363121
1 1.845620 2.786556 -1.612850
1 -2.523954 -2.826659 -1.043696
1 0.229709 -1.567689 -1.229036
1 0.417160 3.106583 -2.934238
1 -0.731429 -1.721213 -0.186496
1 1.544973 0.849029 -1.654326
1 -2.011769 -1.656736 -1.735589
1 -1.277379 -2.008797 -1.708998
1 3.009549 -0.637551 0.523634
1 -0.030336 -1.265569 -0.446712
1 -1.520256 -1.124874 -1.944655
1 1.165323 1.872486 0.427978
1 0.527988 -1.565174 0.821231
1 -2.714882 -1.683646 1.164070
1 0.163453 2.884879 -0.827063
1 1.422800 -2.136985 0.238112
1 -0.987969 0.119514 -2.417371
1 -0.462207 -0.079381 -2.148913
1 0.489838 -1.225982 -2.783237
1 2.174776 -2.747354 -2.425631
1 2.984687 -1.169732 -0.378221
1 0.261023 -0.267826 2.501418
1 2.110446 1.309969 -2.579752
1 0.035229 3.144414 2.557409
1 -2.363820 -0.867076 -1.404440
1 -1.349955 -1.371241 -2.548223
1 -1.452955 2.125155 1.997067
1 -2.053162 1.459531 -1.140511
1 -0.703873 -1.573015 1.474617
1 2.402150 0.287722 -0.888507
1 -0.968271 -1.620773 -2.649408
1 1.575769 0.090741 -0.050789
1 -2.496784 1.231769 -2.779404
1 0.670351 1.926515 -0.109594
1 -1.211588 -1.455523 2.811567
1 3.172629 1.409577 -1.156604
1 0.932241 0.270751 1.266381
1 2.847066 0.464600 -2.940707
1 0.347173 1.282767 -1.823774
1 2.372332 -0.736348 2.693891
1 -2.297452 2.516183 -2.129598
1 0.633288 -0.547251 -0.810886
1 -1.400296 -2.164858 -0.531391
1 -2.510581 -0.424699 -1.048273
1 -1.499785 -0.224058 2.672100
1 2.289672 0.814807 1.228366
1 2.413098 2.921116 0.509355
1 -1.091203 1.338962 0.109883
1 1.031667 1.342373 -0.978910
1 -2.151695 0.742620 1.943522
1 2.125996 -0.045979 -2.358228
1 1.828548 -0.303650 1.870291
1 -1.936238 -1.810001 -0.952321
1 -2.782709 0.517809 2.336233
1 -0.504140 2.682343 -1.092304
1 -2.326462 -1.148165 3.078644
1 -1.988252 3.138357 -1.802039
1 0.807615 -2.856316 0.267183
1 -2.043737 -0.196062 1.903084
1 0.961371 -2.686598 0.432033
1 -0.855856 1.174694 -2.936674
1 0.826690 -0.692446 1.835320
1 -3.158216 -2.514680 -2.487484
1 -0.872557 -1.213744 -1.048189
1 -2.113231 -2.400392 -2.657330
1 1.934519 0.678395 2.471650
1 1.659736 -2.287526 -0.901061
1 -2.500095 -2.018032 -2.733504
1 2.991435 1.132949 -1.962023
1 1.232984 -0.054239 0.209687
1 -0.042125 1.957657 -0.702003
1 0.147027 -0.437089 1.592522
1 1.212188 0.541289 1.381065
1 1.198950 2.984965 -2.653512
1 -1.990089 2.333080 -0.979962
1 0.993281 -2.554270 -3.136432
1 0.794242 -1.191814 -1.590607
1 0.900717 1.718713 -0.738728
1 0.071673 -2.552415 -0.178906
1 0.120673 -0.450610 -2.851594
1 -0.750900 -2.528786 -2.569472
1 -1.941712 1.628335 3.038195
1 2.579794 0.712203 -0.285606
1 3.167235 0.166593 0.185511
1 2.200582 -2.305206 3.019123
1 0.048819 -2.052358 -2.318527
1 1.152763 -1.553051 1.272503
1 -0.073166 1.772908 -1.286336
1 -2.342124 -2.565592 2.544608
1 -0.662834 2.047449 1.016096
1 2.455407 -0.425426 -0.388264
1 1.827896 -0.978401 -1.037863
1 1.653306 -1.715239 -2.654188
1 0.323993 -0.963378 2.532182
1 -1.106378 2.096597 -2.713977
1 0.462606 0.972857 1.595825
1 -1.254452 2.174761 0.434097
1 0.672024 3.088977 -2.105050
1 -3.108866 0.278236 1.520066
1 -1.210849 -2.722273 0.569237
1 -3.118280 -0.110682 2.956452
1 0.125565 0.327267 0.862273
1 1.983801 -1.547176 -0.446148
1 -2.578285 -0.965978 -0.693630
1 0.954848 2.802476 -0.676742
1 -1.835483 0.710346 -2.405912
1 -1.775546 -1.154043 0.911121
1 -1.325034 -2.031271 -3.136367
1 1.117104 3.142172 2.456856
1 1.080287 2.826208 1.242873
1 0.808928 -0.422966 -2.673872
1 0.517436 -2.534318 1.714886
1 2.059031 0.203047 1.289978
1 2.977005 -0.388644 -1.362997
1 1.554534 2.108542 -2.213799
1 1.872046 -2.115791 1.898546
1 -0.625195 2.507122 -2.650515
1 -1.107788 2.072739 -1.612528
1 -0.222851 -1.161720 -2.861964
1 0.957804 -2.486191 2.434381
1 -1.753361 2.376363 3.144306
1 1.290610 -2.272989 1.778206
1 -0.357783 -2.258658 0.931793
1 0.040215 3.151811 0.874533
1 -1.444373 -2.493765 -2.061602
1 -1.588755 2.990196 0.662656
1 0.410000 1.922613 1.705568
1 -0.620364 -1.187029 -0.195609
1 2.628520 -0.469071 1.476011
1 -2.679542 2.335845 0.322867
1 -1.269861 -0.004395 1.333884
1 -2.743121 -1.649332 2.737107
1 -0.312089 0.272191 -0.704803
1 -0.841505 -0.932901 2.332650
1 -1.941141 -0.609629 2.926220
1 0.141276 -1.454215 2.059137
1 -0.600503 0.603937 0.657076
1 -2.186666 3.043038 0.104343
1 2.753744 -0.494197 2.610345
1 -2.891553 -2.546969 0.745950
1 0.905813 0.213601 2.578768
1 1.721865 1.711802 -1.751140
1 1.922678 1.390961 0.777863
1 -0.644922 2.679113 -0.130922
1 2.432360 1.771057 -2.400354
1 -0.780044 -2.778619 -0.632196
1 -0.303306 -0.852199 -1.514408
1 -3.128329 1.711607 0.524849
1 2.731794 1.840793 0.036576
1 -0.896214 1.945405 -0.496502
1 -0.187632 1.338001 1.331864
1 1.561864 0.752491 -0.970578
1 0.875569 1.341172 0.989659
1 -1.016809 -0.808539 0.408070
1 3.085197 -1.495079 -1.513046
1 2.791114 -1.703597 -0.538876
1 2.003410 2.749195 -2.475481
1 -2.081408 0.661914 -1.918931
1 -0.958772 -0.637540 -2.996869
1 -2.508054 2.267129 0.393533
1 2.384904 -2.349115 -1.211188
1 1.474590 -2.432502 2.872994
1 -2.935172 0.134911 -1.658878
512
step:40000 columns:id,pos dt:0.02 cell:6.349604207872798,6.349604207872798,6.349604207872798 
1 2.802739 1.596866 -2.363914
1 -0.572510 1.294806 -0.985648
1 -2.512696 0.319507 0.801382
1 -1.792406 -1.374765 -2.327856
1 -0.601488 -0.065092 -0.819159
1 -0.945188 1.680554 0.405818
1 0.150355 -1.655352 -1.430455
1 -1.728916 1.196872 2.690564
1 2.856914 -2.969998 1.742340
1 -0.369329 -0.520538 -0.827052
1 1.811497 -1.398093 2.437616
1 0.878705 0.594445 -1.583629
1 -1.564100 2.112609 -2.668733
1 0.582364 0.226663 -0.414407
1 2.458030 -2.524095 2.689846
1 -0.601126 -2.411449 -1.304673
1 -1.003670 -2.877325 1.847869
1 -0.705358 2.442642 -2.765772
1 -3.018706 2.518648 2.696957
1 -0.830097 -0.315285 0.181711
1 0.514126 1.045746 2.759098
1 -1.988136 2.922822 -0.758923
1 -2.167013 -1.188196 2.976428
1 -2.722598 1.789006 -0.805944
1 -1.078972 1.363091 2.367297
1 0.252171 -0.460704 2.716365
1 -1.748795 1.146824 1.077275
1 -2.128260 -2.200815 0.789670
1 -0.145940 0.221991 2.672453
1 2.374342 1.345201 -0.967624
1 2.155982 0.590297 -1.679066
1 -2.987099 1.074333 -1.495855
1 1.862976 -1.733415 0.046088
1 2.945778 -1.403552 -2.042046
1 -1.243313 0.202379 2.175929
1 -3.094340 -0.614313 0.200779
1 1.888578 0.783428 2.192909
1 -2.883603 0.732853 -1.909363
1 0.289405 -0.645224 -0.047705
1 0.313015 0.167280 -3.096629
1 -0.695525 -1.055692 -1.533961
1 -2.151921 -2.718063 1.283985
1 -1.980812 3.000045 1.339282
1 1.278560 0.868228 0.311407
1 -2.047835 -0.859622 0.216213
1 1.192890 0.550491 3.129847
1 1.622417 -2.736957 -2.938568
1 -1.281164 0.906329 -2.232938
1 1.653286 2.945410 -3.108758
1 -3.107214 2.312154 2.686733
1 -2.323480 -0.138265 1.813776
1 -2.656477 -3.013629 -2.823733
1 -0.768170 3.146606 0.743405
1 -2.904212 -0.448267 2.353188
1 -1.983255 -1.589697 1.267132
1 -0.879323 -2.061244 1.017197
1 -0.217973 3.174022 1.691252
1 -0.365021 0.547218 -1.493556
1 3.071564 0.709691 1.249947
1 -2.523030 -0.828420 1.047673
1 0.763678 -2.828668 -3.088978
1 -2.160420 -2.506387 -1.060302
1 -0.774683 1.059669 0.275586
1 -2.701810 0.181044 -2.533350
1 2.681092 2.868752 1.760047
1 2.783853 0.271005 -2.607808
1 0.314113 -1.685027 -0.841042
1 2.828201 -1.927787 -2.292203
1 -1.262132 2.779737 -0.421371
1 1.319998 -0.996181 -0.472461
1 -2.680558 -1.192373 -1.778108
1 -1.491257 -0.896682 2.035449
1 2.017483 0.278255 -0.876607
1 0.524417 2.066194 2.405096
1 1.895150 1.163239 3.115880
1 -2.215951 1.063293 -2.635887
1 1.379081 -1.432661 -1.809186
1 1.177555 0.089182 -2.665554
1 -1.645670 -2.473721 0.300952
1 2.222097 -1.505303 1.181303
1 1.113904 2.198493 -0.244438
1 -0.343375 1.632207 -0.778387
1 2.173205 1.315448 0.840743
1 -0.089478 -0.485284 0.008433
1 1.205777 -1.709306 0.442256
1 3.150176 -0.158416 0.970263
1 -1.972337 1.023606 -2.435457
1 1.275800 -1.345433 1.569854
1 1.515940 1.001915 -2.216868
1 2.107085 2.332915 -2.495488
1 3.111302 -2.818376 2.556351
1 2.066873 0.158750 0.595969
1 -0.461863 2.621002 2.140198
1 3.062019 -0.248258 -1.190735
1 2.314041 -0.261323 -2.991920
1 -1.787426 0.781344 3.048583
1 0.441400 1.104515 -1.288409
1 -1.090435 0.959861 2.967707
1 1.455839 -0.029455 0.662949
1 -2.588911 2.651761 1.934663
1 -2.637736 0.696479 1.942836
1 -2.007470 -2.455075 -0.781072
1 -1.459985 -2.883747 -2.041839
1 1.930407 3.159088 0.873511
1 -2.161497 -2.684500 -0.118443
1 2.814598 2.904429 -1.784368
1 -0.084716 -2.166668 2.659806
1 -0.307175 -1.330613 -2.957689
1 -2.387143 -1.783463 -1.853498
1 -0.092678 1.876762 1.620958
1 -1.428064 -2.093893 -1.008460
1 1.367265 -0.735023 0.728714
1 1.922014 1.614455 2.285902
1 -0.599214 -1.224056 -2.144324
1 -2.711747 -2.150546 -2.953514
1 -2.245518 -0.227139 -3.118706
1 -0.575200 -0.250706 2.983555
1 -0.143641 1.373330 -0.133901
1 -2.339024 -0.600065 -0.633231
1 0.140508 0.206861 0.752739
1 -0.079537 -0.572030 0.885197
1 0.253885 1.471610 -2.138983
1 3.106715 0.508902 0.004917
1 -0.450193 2.188622 2.601066
1 2.930735 -2.725926 0.853379
1 -0.332554 -1.563226 2.640978
1 3.111699 -2.682498 -0.010345
1 1.587870 -0.276906 2.897258
1 2.523167 -0.945509 0.100648
1 -2.662862 -2.813563 2.420231
1 -1.349690 -2.358456 0.197312
1 -0.948862 -0.325001 -3.110857
1 1.786607 2.310874 -0.976727
1 0.883593 -2.803683 -3.131072
1 1.402461 1.155396 -0.385068
1 -2.922601 -2.387240 -1.847279
1 -2.067228 -0.319055 0.957627
1 -0.419153 -2.250006 3.114117
1 2.377648 -2.272630 -1.307182
1 -2.961729 -2.645520 1.488192
1 1.057026 1.686821 2.750194
1 2.491107 -0.652772 0.803840
1 2.607511 1.764704 -0.336233
1 -1.137016 1.837896 -0.833824
1 2.051164 -1.373667 -1.019254
1 0.506509 2.620526 3.060120
1 -1.312769 -1.502359 -1.353305
1 0.155997 -1.504396 -1.975633
1 -3.001814 0.254968 -0.634846
1 1.925262 1.607359 -2.251503
1 0.528520 0.538771 2.184308
1 -3.026933 0.513896 3.008665
1 3.026777 -0.521668 3.034782
1 -1.069201 0.889648 -0.221983
1 1.288041 2.339339 -1.931291
1 -2.575514 2.415902 -2.910805
1 -3.073840 -1.971543 -0.606312
1 0.780728 -0.507734 2.512185
1 2.567552 -2.125094 -2.785239
1 -2.743205 2.195949 0.705632
1 -0.916089 -1.346392 2.065056
1 -2.880968 1.678769 1.850933
1 3.124089 2.957978 -2.875762
1 1.301923 2.656187 1.424506
1 -1.379905 -0.701199 -1.109793
1 -2.135912 1.194409 -1.114363
1 -2.414532 -2.123879 1.488382
1 -0.093762 -1.715306 0.860790
1 -2.510461 -1.470344 -1.243622
1 -2.369651 0.088227 -1.854804
1 0.691850 -1.112803 -0.043256
1 -0.192964 1.404142 -2.975666
1 1.240643 0.464193 -0.929801
1 -1.669443 -0.292021 -0.018052
1 1.019254 -2.361655 1.295103
1 -1.361132 -0.340657 1.059505
1 0.137351 1.482410 2.294551
1 1.871189 -2.303106 1.364245
1 1.172811 -0.260713 2.026603
1 -1.461876 -1.133611 0.099909
1 -0.771501 0.713203 1.404719
1 -0.216860 -0.887553 -2.631324
1 3.136703 -0.093288 -1.599128
1 -1.292293 2.577212 2.202809
1 0.310939 -2.815794 -0.026756
1 -2.337796 -1.482976 -2.766361
1 2.613845 -1.431062 -0.885044
1 -2.450533 -2.932016 0.174490
1 -1.690103 2.818120 0.638059
1 2.830479 2.147860 -2.933649
1 -2.438754 -2.792185 -1.643967
1 -0.202602 -2.897186 -2.214866
1 -2.041260 -0.395142 -1.244712
1 -2.422978 1.040809 2.522687
1 1.306956 3.093205 0.624599
1 2.529001 -2.880263 -3.137883
1 0.529907 0.818551 1.089834
1 -2.398622 2.632909 -1.108012
1 2.367255 0.964966 -1.121241
1 -1.224708 -2.934303 -1.630744
1 3.005774 -1.413615 0.532707
1 2.396679 2.222050 0.549098
1 -1.632116 2.422342 0.590029
1 1.064481 0.566464 2.370478
1 -1.957742 0.933798 0.566164
1 -1.900227 1.700986 0.778600
1 0.867894 0.248851 0.978933
1 1.696075 -3.155237 2.475600
1 -2.898451 0.104937 2.253931
1 -2.113072 1.909712 2.897195
1 2.850898 0.964257 0.444690
1 0.308054 -1.506971 1.111872
1 -1.270276 -2.386526 -3.047619
1 2.071186 2.458559 -0.028736
1 0.522130 2.664766 -0.955843
1 -1.600590 2.830388 0.212213
1 -2.890641 2.834070 0.079133
1 1.724671 2.804551 1.751129
1 1.590888 -1.954257 2.493200
1 1.006057 1.689754 1.250565
1 0.691250 -3.106874 -0.307558
1 1.757656 2.109783 -2.794639
1 0.657336 2.199870 0.631946
1 2.364614 -2.601049 -2.218994
1 -1.037405 -2.771237 -0.499086
1 2.214771 -1.375412 1.973062
1 2.601557 -2.135947 -1.521328
1 -2.410371 -0.548125 -2.478411
1 2.769463 2.553612 -1.143555
1 2.113548 -0.844834 2.402476
1 2.870732 2.720437 -2.393780
1 -1.341944 -1.962592 -2.683052
1 -1.101192 -1.449556 2.908019
1 1.894699 0.134084 1.593154
1 -2.165654 -0.459014 2.561629
1 1.430800 0.292884 -1.795435
1 -0.799320 -0.069128 -2.286962
1 3.075232 1.672487 -1.742459
1 0.758778 -2.157429 0.052583
1 0.378926 -0.816548 1.095240
1 -1.993016 -2.015543 2.633933
1 0.024909 2.794955 -2.132310
1 0.894150 1.750276 -2.370711
1 -1.029184 -1.955142 -0.506669
1 -0.890678 -0.371956 1.717049
1 2.224826 -2.928312 -0.483564
1 -1.236438 0.255590 -2.920261
1 0.911345 -1.714525 -0.637798
1 -1.764086 -0.437452 -1.710638
1 -0.136517 0.591350 -0.821956
1 0.580547 3.114283 2.509757
1 -2.354043 -2.213156 -2.807159
1 -0.890085 -2.882943 -2.794138
1 2.940664 -0.916965 -1.540277
1 -1.101210 1.915660 -3.127095
1 0.833085 -2.065098 2.133841
1 1.308192 2.189609 0.492122
1 2.903545 -0.523338 1.590383
1 -0.317681 -1.659750 -0.035894
1 2.243323 -2.920517 -0.551370
1 1.244699 -2.167084 -2.105200
1 -0.182735 1.804104 -1.579455
1 1.770614 -1.551053 -1.406400
1 0.858978 2.812526 2.049092
1 -1.188680 1.648918 -2.335279
1 -0.479207 0.673259 2.863759
1 -2.096149 -1.676704 -0.015514
1 2.181039 -0.269730 -2.393681
1 1.909237 0.389821 3.025882
1 0.944166 -1.033442 -1.888573
1 -1.352046 2.244720 2.464557
1 2.518372 0.978253 -2.293001
1 2.725340 2.512887 2.583996
1 -2.937585 -1.086560 0.425257
1 3.113889 -2.438948 -3.008355
1 2.800114 -1.211001 -2.891139
1 2.532152 -2.079398 1.411285
1 1.242021 -0.751910 -2.982958
1 -0.798804 2.583926 3.145297
1 2.829929 2.697896 0.199133
1 1.672574 1.175898 -0.223042
1 0.228806 0.111914 -1.453220
1 0.127813 2.260645 0.125362
1 1.179716 -1.078103 1.740449
1 2.766884 0.260884 -0.104503
1 -3.020388 -1.257140 3.167145
1 3.038633 -1.642677 1.343668
1 0.469073 -2.858064 1.282685
1 1.360403 0.743961 1.812709
1 1.539541 -2.624862 1.856790
1 1.138369 1.344000 -1.473880
1 0.213277 1.354794 0.472738
1 2.468376 -3.080734 0.744054
1 2.317429 2.386080 2.395749
1 2.895364 -0.889271 1.594433
1 -0.471047 -1.408650 -0.432721
1 1.402958 -3.001785 -0.326725
1 3.032396 -1.346840 2.425021
1 2.329124 -0.387489 -1.072868
1 0.900693 -2.395190 -0.940226
1 1.967778 2.856409 3.162985
1 -1.599377 0.084192 2.598285
1 -2.522471 1.708633 0.795104
1 -0.032376 -1.054299 1.914981
1 0.750948 -0.331925 -0.953307
1 -2.514326 -1.364398 1.353906
1 2.747117 0.945050 2.250484
1 1.072072 -1.837953 2.936756
1 -0.637294 -2.749735 0.040489
1 1.936645 1.959083 1.192527
1 -2.196322 -1.611056 2.305892
1 2.450694 0.322144 2.061215
1 -2.684834 -0.106489 -0.881869
1 2.683748 -0.705266 -2.034304
1 0.713770 -2.462363 -2.036168
1 0.141241 2.264725 -0.610687
1 0.654084 2.014232 -1.649751
1 -0.586367 0.903108 -2.860868
1 1.809677 1.443469 0.873862
1 2.746188 -2.278693 0.424235
1 1.078026 -0.381457 -1.719639
1 -0.448390 -0.007996 -1.837137
1 -1.464467 0.456122 1.557341
1 -3.170566 1.039543 -2.641307
1 -0.488488 1.805511 -2.037842
1 -2.507567 2.152925 0.121396
1 -0.642724 0.313953 -0.051743
1 -0.441151 -2.591919 2.453590
1 -2.402687 3.116683 -2.446477
1 -0.706018 -1.345909 1.503832
1 -1.560371 0.135960 -0.087453
1 2.450390 -0.091681 -0.018357
1 2.994158 2.712786 1.131483
1 -0.552460 1.279600 1.840776
1 -1.492284 -2.163142 2.639805
1 -1.870447 0.719448 -1.333681
1 0.789850 1.301699 -0.824403
1 0.049015 -3.002333 -0.844754
1 -0.590064 -3.148782 2.732205
1 -1.306752 -2.901517 1.926103
1 -0.000777 -3.037852 -3.138346
1 -3.036522 -0.844417 -0.407096
1 1.823305 -0.308792 -0.871709
1 1.903534 -1.775855 -3.171077
1 -1.299345 -1.259024 -0.576652
1 1.414442 2.287892 1.951096
1 -0.405986 2.841911 -0.178526
1 -0.763920 2.377175 -0.339717
1 2.131641 1.625237 2.916766
1 2.165950 0.993820 -3.117722
1 3.132404 1.252950 2.980793
1 -0.924800 0.256663 0.796492
1 -1.719185 -2.374903 2.048641
1 -0.781447 2.083961 1.148125
1 2.016757 -0.391885 2.288037
1 2.121835 -1.196358 -2.558808
1 0.104280 0.414779 0.011882
1 1.672137 -0.754819 -1.872528
1 0.138186 0.337465 1.509966
1 -2.780877 1.899413 -1.874928
1 -2.546098 2.523660 -1.786999
1 0.237536 2.602110 1.893757
1 -0.428860 2.351748 0.446541
1 -1.987716 -2.395993 -2.124584
1 -1.563362 -1.438290 -1.690895
1 1.213606 -1.046397 -0.636559
1 0.243764 -1.907446 1.814179
1 -1.771905 0.650104 1.971869
1 1.732124 -2.168547 -1.222973
1 -1.726369 2.779272 -1.432832
1 1.236437 2.131567 3.025807
1 2.924437 2.148380 -1.163589
1 2.155364 -2.711854 2.089599
1 1.649494 2.934130 -0.857486
1 -1.008364 -1.096787 -2.962116
1 0.577003 -3.130448 1.058224
1 0.354625 -0.114153 -2.623997
1 -0.566071 -0.658653 1.084145
1 -0.210405 -2.246825 -2.512049
1 -1.273626 2.859163 -2.120788
1 0.892595 -0.262478 1.737636
1 0.602302 0.881081 -2.897814
1 0.507025 -2.109584 -2.697733
1 1.806354 -1.226383 -2.708094
1 2.621733 1.168125 1.707049
1 -1.477382 1.525737 -0.257296
1 1.297817 0.087815 -2.346453
1 -1.803353 2.162534 -0.557229
1 -2.602279 1.768111 2.103306
1 -1.008961 3.165644 1.129051
1 -1.306191 -0.643275 -2.177131
1 -1.205316 0.769882 -2.148583
1 -1.249764 -0.215805 -0.761487
1 0.906893 -1.827896 2.732017
1 -2.433427 -1.776052 0.154965
1 1.917222 1.608683 -1.763539
1 1.845073 2.200409 0.116811
1 0.742018 1.693072 0.029942
1 -2.422842 1.623861 -2.353419
1 -0.367076 -2.650589 0.572733
1 -2.861561 -2.028610 2.195176
1 1.720268 -0.244694 -0.066304
1 -2.089960 1.286484 1.831235
1 -1.597177 -3.018700 -2.827537
1 -2.969392 1.337403 2.923312
1 -1.936583 -3.090454 2.799136
1 0.501051 -0.902310 -1.109405
1 -0.320339 1.011593 2.169194
1 -1.049863 0.623464 -1.043471
1 -2.088234 2.470655 1.495688
1 1.125709 1.474438 1.867367
1 -2.220305 3.151636 2.119289
1 0.640888 -1.522284 -2.319336
1 0.199251 2.360406 -2.662674
1 1.733478 0.601730 0.981204
1 -2.279369 -1.285063 -0.709187
1 0.331228 -1.044700 -3.067800
1 2.617221 -0.157225 -2.967657
1 -3.104282 0.946779 -1.142044
1 -3.106408 0.707427 1.271926
1 1.606791 -2.467292 -0.185603
1 0.807200 1.891326 -0.849339
1 -2.969913 -1.693420 -0.746959
1 -3.142268 1.359623 0.772662
1 -0.910975 -2.046681 1.777214
1 -2.793580 -0.772052 -2.473147
1 0.972305 -1.066872 -3.081626
1 1.972338 1.769244 -0.920519
1 0.878885 -0.670771 0.539483
1 0.844204 -2.434950 -1.252495
1 2.273677 2.255957 1.588445
1 -3.114397 -2.508983 -1.142614
1 -0.347919 -2.217613 -0.436447
1 0.558481 3.111457 0.235868
1 1.645088 -3.071887 -1.828938
1 0.836028 -1.876838 0.619289
1 0.971093 2.645885 -2.545403
1 -0.100629 -1.992681 0.610026
1 -1.709891 0.440789 0.742733
1 -0.658085 1.160037 0.916065
1 2.303501 -2.211201 -0.044104
1 -1.040768 3.002305 -1.140278
1 -1.113768 -0.726329 2.117463
1 2.092883 -1.487362 0.283680
1 1.228157 2.614370 -1.287771
1 -0.303044 -2.446031 1.724703
1 -2.455909 0.709947 -0.174780
1 0.848727 -2.698534 2.100232
1 3.049590 1.933293 0.993865
1 0.322035 0.626827 -2.151827
1 -1.988548 1.078900 -0.052376
1 -0.257236 0.151330 1.592662
1 -0.471272 -2.091226 -1.441483
1 -1.495810 1.984761 -1.464972
1 2.848004 -0.139789 2.375938
1 1.788814 -1.103483 1.036698
1 -1.975056 -0.955714 2.439930
1 0.140380 2.848182 1.033799
1 1.088292 0.292695 -0.114520
1 -0.016331 -0.416875 2.234587
1 1.022317 -3.066853 -1.432450
1 -2.941595 -2.090864 0.631863
1 -1.458898 0.150160 -1.739502
1 0.078952 1.590232 1.210647
1 3.021788 -1.398390 2.466935