512
step:0 columns:id,pos dt:0.02 cell:13.679807573413576,13.679807573413576,13.679807573413576 
1 -3.805593 2.628803 0.140174
1 2.405028 0.025460 0.959223
1 -5.012679 4.752482 1.640797
1 -1.093349 5.086455 5.976922
1 3.500091 1.754068 5.316308
1 -3.859107 -1.731172 -4.267657
1 -2.149794 1.183177 1.993644
1 -1.576298 4.687441 -0.915275
1 0.793147 2.402438 -3.373721
1 -2.160300 2.030209 0.099197
1 1.986859 -4.353935 -6.446217
1 -1.671213 -5.923352 -3.976657
1 4.229863 -3.647561 -4.526753
1 5.005531 -0.503302 -5.995371
1 5.769422 5.133390 0.400200
1 -5.283407 -0.645594 -5.368016
1 -1.535245 0.886198 -4.405571
1 5.431066 6.597644 5.665046
1 -5.699291 -1.802752 0.612308
1 2.425220 -5.422477 1.209051
1 3.566263 4.908187 -0.550236
1 -0.627117 2.869667 2.447573
1 -5.729294 -2.932319 -0.646379
1 -4.981422 -1.022416 -2.848274
1 1.430256 3.701491 -4.445787
1 -0.361151 -4.365582 -1.009035
1 5.263148 1.861763 2.626991
1 2.329339 2.871262 2.843528
1 1.667832 -3.851726 1.769510
1 -5.860662 3.751041 6.832030
1 0.871536 -1.256342 -1.788275
1 5.320733 1.896238 -5.030789
1 2.337471 2.391653 6.760272
1 -0.091041 -2.079298 -0.590861
1 6.669350 -5.519610 5.543553
1 2.369025 3.342324 0.943969
1 -6.070807 0.936882 3.666550
1 -2.755253 3.674615 -5.868197
1 -6.088128 -6.139005 -2.149979
1 -2.159127 -5.057230 -0.022032
1 -1.199735 4.541594 1.283501
1 6.158499 4.901987 5.449110
1 -2.530420 4.605316 -4.143204
1 -2.561988 4.096793 0.081977
1 4.188430 2.459976 -6.536530
1 -1.213499 4.411112 -5.965139
1 -0.390279 -0.822622 -3.067362
1 -3.141275 -1.304710 -0.827246
1 2.722823 1.162444 3.592347
1 2.101171 0.381325 -0.861209
1 2.055692 0.338262 -5.146874
1 -5.885654 -2.825549 3.940659
1 -4.570041 -2.054211 -1.607040
1 4.464647 -2.658943 -0.088033
1 -3.590184 1.734810 3.073078
1 2.926707 -3.609629 0.710272
1 0.291360 5.545982 -6.682297
1 -3.906533 6.397182 0.853163
1 3.997059 -1.591782 6.563155
1 -1.498494 5.727334 -4.687278
1 -2.550275 -6.003981 -2.568276
1 4.319611 -6.283209 0.791490
1 -2.483959 4.628382 4.246163
1 -3.667916 3.449415 -1.345118
1 3.767099 3.683073 1.874589
1 1.966113 1.188459 1.937422
1 -1.879774 2.937866 -3.388404
1 -0.937308 2.953692 6.819191
1 -4.099130 -5.503305 -1.866354
1 -0.143014 2.254600 4.603923
1 -0.206169 -2.141941 4.420009
1 -6.271218 0.183413 -3.534921
1 3.391206 -2.977118 -6.012669
1 -5.297730 -0.851576 6.644546
1 0.462063 1.928390 6.704933
1 -3.700889 -3.267336 4.005142
1 5.688465 -2.273277 -5.113641
1 -5.341861 -2.601918 -5.138745
1 1.431775 6.160712 -3.019284
1 -3.815037 -2.617434 0.272975
1 1.497997 6.666805 2.312934
1 6.275075 -4.345730 -1.288233
1 -1.521228 -3.107078 -2.230676
1 6.395739 4.429104 -6.378621
1 -6.606615 2.585391 -6.014570
1 4.783356 -5.868586 -5.483269
1 3.470737 -1.420198 0.229579
1 2.900880 -3.395325 -3.384770
1 0.706363 1.044830 0.177510
1 -0.417790 -4.322823 -2.977155
1 0.054904 -4.991586 -4.447005
1 0.603211 -0.812370 4.238141
1 -1.911508 -4.148072 -5.485214
1 -3.264056 -6.776651 6.781385
1 -3.377020 -1.430064 1.121848
1 2.818766 -0.321055 5.444053
1 6.648235 0.466666 5.605547
1 3.711913 0.435017 -0.747819
1 4.478213 -3.034539 3.625179
1 -3.015972 0.008770 0.499271
1 3.543470 -4.437269 4.136572
1 1.118889 6.275971 -5.187123
1 -1.248907 -2.627298 1.877126
1 4.067662 0.387313 6.401620
1 0.241595 -3.740368 1.121715
1 0.102879 5.199462 -1.749469
1 4.030658 -6.072743 -1.359900
1 5.880962 -4.915270 -4.483867
1 -1.777686 5.797825 4.621714
1 5.445928 -4.008484 3.750271
1 1.335941 3.753458 -1.441815
1 1.134205 -0.660492 6.187527
1 -3.720630 -5.609645 4.857137
1 0.234657 -3.677661 4.635137
1 0.425992 -6.523776 -1.778908
1 3.765824 0.364072 2.632237
1 -0.624005 -3.526382 -4.687161
1 -5.309862 1.989766 5.931254
1 -6.468542 -4.739164 3.892123
1 6.716113 -4.620200 2.500091
1 -6.056176 5.265033 4.338576
1 5.033674 -4.990326 6.320099
1 -6.735126 1.129843 -5.000025
1 -4.258023 0.469879 -3.713613
1 -5.045908 1.032098 -2.176214
1 -1.456879 2.733240 1.246648
1 2.611916 4.712522 2.259168
1 -4.623336 -4.769066 -3.431748
1 5.185689 -6.166231 3.381520
1 -3.849177 6.375951 4.217594
1 6.067327 4.933698 -4.478810
1 1.653066 0.504967 -2.697304
1 -4.008231 -3.566699 2.026050
1 -2.639501 6.303619 -3.570802
1 0.838441 2.750955 1.677450
1 -4.346733 -5.901472 -0.295402
1 1.957191 -1.990156 1.001392
1 -5.431627 -4.814136 5.133648
1 6.663344 4.925014 -2.632114
1 -0.401128 6.727535 -3.147664
1 1.191469 -5.517267 -5.314936
1 -6.453627 1.908881 0.308623
1 -4.804899 6.700048 5.837625
1 -6.663299 -3.495817 5.502737
1 4.499518 -3.995988 -1.776170
1 0.818153 1.941223 3.438491
1 -3.730111 -5.034904 6.481578
1 5.933335 -1.283948 -3.406378
1 1.682197 -5.401203 3.156876
1 2.875167 -6.619941 -4.863744
1 1.170999 -4.894917 -2.444457
1 -1.660945 6.334957 -1.874866
1 2.585561 3.121244 -3.080536
1 4.803307 3.408102 5.061881
1 -6.084337 0.995377 1.512493
1 3.547569 3.944068 3.677732
1 -4.424199 5.690792 -4.581863
1 3.136800 -1.319187 2.004087
1 -1.526809 -1.599136 0.243383
1 2.502553 -5.817403 4.268795
1 -2.676070 1.501853 -3.154626
1 4.040245 0.708878 0.839635
1 6.260106 -2.141300 1.082391
1 6.688345 5.389531 2.613968
1 -0.777836 -5.857480 -0.131506
1 -3.227256 -5.420952 -4.128633
1 4.982246 1.587360 -2.504971
1 -5.678400 3.366372 -2.872370
1 -6.472039 -1.095482 2.201471
1 2.220329 -6.146860 -1.464063
1 -2.403714 -2.533853 4.776176
1 -5.442179 -4.367578 -4.885337
1 -5.260663 -5.050807 1.811461
1 4.849262 -5.302585 4.778269
1 -4.044482 -4.424998 0.204147
1 6.833453 2.450750 5.939523
1 5.883587 -6.186302 -6.656872
1 -3.201030 -2.504006 -2.385003
1 -6.265360 -2.085768 -3.779040
1 -2.661902 -4.378541 4.914163
1 5.094821 6.471170 -0.328629
1 -2.147723 -2.811486 -0.809853
1 6.187272 -2.479670 3.344991
1 -0.170707 3.209472 -2.138036
1 -1.210739 -3.458659 5.748840
1 -4.654649 6.362780 -6.144932
1 4.038850 1.300116 -4.094892
1 0.407342 -1.961483 -4.318281
1 -4.697010 -4.294483 3.464710
1 0.499300 -2.704384 2.914099
1 -6.120864 5.584212 0.595299
1 -2.884510 -2.300268 2.704242
1 2.476029 -2.096490 -4.638712
1 5.283286 6.005702 -2.146206
1 -5.220164 6.065923 2.732073
1 4.414761 0.731989 4.203113
1 -3.297269 -0.418895 2.749700
1 1.408992 0.764377 4.915848
1 -5.600579 4.526904 -3.783119
1 4.258066 2.546433 3.783617
1 0.798893 3.643295 3.561293
1 6.245896 -0.115615 3.973917
1 5.217287 4.296758 -1.403026
1 -4.387512 -1.520717 4.345191
1 6.119983 2.098941 4.017642
1 -1.343863 0.568168 0.665090
1 -5.887961 -1.017704 3.704343
1 1.680590 4.633925 5.965012
1 6.181287 -0.063874 -2.305149
1 4.544765 -0.907987 3.724302
1 4.345455 -0.230762 -2.518528
1 2.310346 4.113959 -6.022320
1 -1.779892 -5.358882 -6.468996
1 -2.349055 -4.616612 -1.589538
1 -4.867953 -2.920497 -3.476489
1 -0.597341 6.147291 1.203535
1 5.755284 6.806002 -4.622985
1 4.772289 3.698203 -5.557358
1 -6.396434 6.197323 -6.296004
1 0.606289 -6.030241 6.802879
1 2.613456 5.281077 -3.915428
1 -2.181327 -6.508446 3.760736
1 -2.078321 -6.535985 1.641055
1 3.568005 -4.371889 2.482562
1 0.774607 -3.198420 -1.954016
1 1.852136 -3.725989 3.667079
1 -0.248899 -2.449575 -2.895315
1 0.424275 -5.861104 1.142145
1 6.402751 1.702838 -3.466061
1 -6.481290 4.151384 -0.722033
1 4.133205 3.047621 -2.137709
1 -4.632481 -6.039592 -5.272515
1 -5.310545 2.078059 2.665797
1 1.306640 1.845582 -5.328974
1 -1.680381 -1.958957 6.415083
1 -2.000120 5.935244 0.119567
1 -3.632637 -0.709052 -5.844729
1 4.366080 -1.987290 -3.479590
1 0.291710 5.107129 -4.687274
1 -5.412275 2.768239 -1.109979
1 -0.119836 1.188340 1.731451
1 6.714252 -6.395570 2.233087
1 -2.435069 -2.203381 -5.656092
1 2.794215 -0.969630 -2.280854
1 5.393573 -1.163302 2.333552
1 0.540544 -3.729249 6.610585
1 -3.213637 -3.358162 -4.782701
1 -0.243037 1.953941 -4.777345
1 2.313276 -6.078443 -6.507499
1 -3.245982 6.495078 2.529251
1 2.746987 -3.599073 -1.513383
1 -1.889816 -2.179206 -3.751179
1 2.122703 0.555184 6.819804
1 5.770233 0.341146 2.704757
1 -2.871113 -6.522413 -0.654557
1 -0.470065 -4.700467 -6.144966
1 3.383243 -4.953949 -0.286671
1 2.412812 -2.068243 -0.940363
1 -3.074694 1.022545 -5.217292
1 -1.195444 6.473350 -6.524605
1 4.180799 -5.529968 -4.044730
1 -0.709895 -5.105560 5.851694
1 -5.208817 -4.010928 -2.007892
1 -6.619997 -6.653243 4.172414
1 -4.198642 3.983881 -4.903126
1 0.132828 0.301056 -1.718973
1 -0.572850 1.541533 -2.987471
1 3.101827 -5.021993 -2.585496
1 5.122828 4.031096 2.743264
1 -1.263435 3.460561 5.008771
1 2.059387 4.932588 0.342667
1 -0.681153 -0.635574 6.704217
1 4.269581 5.419448 1.104111
1 5.228069 1.707993 5.597849
1 5.712652 -3.178136 -3.153081
1 -0.050198 -1.204949 2.725115
1 -6.246439 3.961553 3.214190
1 4.880343 -5.084383 -2.843502
1 2.158696 5.817169 -6.288550
1 -2.590849 2.154760 -6.651642
1 -6.719546 1.885466 -1.724649
1 0.287878 -5.681713 4.439523
1 -3.437198 -5.556333 1.507428
1 3.775028 -2.054855 5.009035
1 -5.360295 1.822729 -3.971907
1 -3.473420 -5.585106 3.338289
1 -0.703969 -0.385142 -0.400170
1 -2.530024 -0.569887 -4.364758
1 4.705293 -0.794258 -0.964418
1 -4.145924 0.004277 -1.605738
1 -2.358837 0.353700 6.272686
1 -4.920572 -0.670091 -0.129340
1 -6.214993 0.733253 -6.612700
1 -0.583548 3.611968 -4.388677
1 -0.778798 1.558914 -0.999098
1 4.916727 -4.950527 2.034460
1 -1.781221 2.575383 -4.885051
1 0.100685 -1.884329 1.233298
1 6.121516 -6.264234 0.696160
1 5.490830 3.044968 1.301748
1 1.910056 -2.188825 -2.951254
1 3.996473 -2.591920 1.717802
1 1.159071 6.839163 0.152267
1 -4.128156 4.789180 5.125789
1 4.386735 3.086433 -4.002870
1 4.155843 6.709514 4.833186
1 5.602884 0.833625 -0.925202
1 0.493210 -0.291118 1.246044
1 -3.258086 -0.385077 4.947802
1 -1.687361 -1.411037 -1.773906
1 -2.312991 0.270830 -1.243901
1 6.464603 -4.213463 -6.323640
1 -2.608965 3.711643 6.162528
1 -0.526318 -6.744447 5.480668
1 -4.036230 4.791511 2.994150
1 5.198243 5.662781 -6.268657
1 -0.516504 6.302067 -0.659873
1 0.374881 4.412750 -0.269414
1 -5.073049 0.190608 5.238352
1 3.472243 -0.262941 -3.999543
1 -6.625490 -4.271526 -2.841071
1 -3.497910 2.951041 1.707644
1 1.760881 -1.474469 2.725165
1 0.906528 5.317236 1.507213
1 3.102143 -5.372866 5.882149
1 -6.198401 -1.139828 -1.567649
1 -5.376794 -3.378729 0.822924
1 3.753020 5.862421 -1.591405
1 -1.910377 2.746894 -1.442208
1 1.283534 -6.033346 -3.564308
1 -6.795572 4.211982 1.161332
1 3.706763 -3.599776 6.045314
1 -0.513547 -6.402494 -5.049139
1 -6.640888 -5.642673 -5.712495
1 -2.989791 5.604927 -5.630756
1 -2.649933 5.237701 6.182623
1 -2.513678 -3.420863 6.664303
1 -0.414374 6.020260 3.485571
1 -4.948620 4.594504 -1.503359
1 0.362826 0.282766 -5.992182
1 1.082742 -5.018775 -0.336172
1 5.951478 3.259479 -2.361493
1 2.138307 -2.146613 6.700739
1 4.477401 5.071926 4.602731
1 -3.248485 5.324736 -0.913444
1 6.621492 5.888593 -1.244669
1 -4.684082 3.478106 3.694769
1 4.269238 2.174348 -0.622982
1 0.548543 0.764566 -3.837793
1 5.347266 0.171315 -4.129106
1 -3.201763 -3.943391 -3.222241
1 -4.135343 3.158359 5.785353
1 6.783299 2.782397 2.378082
1 5.553854 6.366048 1.842860
1 -5.991111 4.840565 -5.336058
1 4.370858 6.486769 -3.450335
1 1.387684 1.821480 -1.654796
1 -5.765658 -4.881074 -0.598991
1 -5.256773 6.060419 -0.645846
1 -3.134352 -0.681519 -2.906503
1 -2.306371 0.516595 3.960640
1 -1.246205 -4.997242 4.078646
1 -1.666127 -1.394452 3.673395
1 -4.088496 -2.827340 -6.212561
1 0.200106 -4.528446 2.813808
1 5.320124 -0.514005 5.596143
1 4.335029 4.733238 -3.326714
1 0.194551 -2.121075 6.145875
1 -5.092372 -6.153052 3.479316
1 5.764995 -5.772105 -0.980923
1 -1.817669 -4.190875 -3.695358
1 5.823498 1.171004 -6.600788
1 5.234938 -3.528390 5.412342
1 -3.482035 1.387065 4.624883
1 1.340454 -0.915617 -3.860206
1 6.170067 3.651515 4.116142
1 3.993758 -6.625001 -6.796807
1 2.150813 -3.249471 5.539858
1 4.884003 -4.563548 0.294371
1 0.951129 4.254951 -3.126870
1 -0.385713 0.594685 3.528739
1 -3.536664 -1.627034 6.148972
1 6.400408 -1.306475 -0.426804
1 -4.888035 -0.322755 1.581255
1 1.305151 -3.303993 -0.083724
1 -2.456409 3.756246 2.810492
1 -5.930139 3.769794 5.266511
1 0.247471 4.173443 1.863764
1 -4.986303 1.103574 -5.481791
1 -4.116402 0.943257 6.440977
1 -4.480909 -6.604729 -3.501159
1 -2.297005 4.521226 -2.421082
1 6.574873 -0.813221 -6.771886
1 1.884297 5.629752 -1.491558
1 2.609153 -4.684000 -4.352426
1 5.905997 -1.980698 4.754953
1 -3.826237 -4.569044 -5.844695
1 -6.446951 -2.568398 -6.291060
1 -3.671398 -3.764483 -1.242844
1 5.680659 -2.129413 -1.560887
1 2.928351 6.335399 1.558955
1 -0.864244 -3.330619 0.140629
1 -5.538063 5.311238 6.249928
1 3.818957 0.924726 -5.868181
1 -0.779216 -0.465976 -4.774699
1 -0.369096 -6.276325 2.711297
1 5.596014 -2.415795 6.657315
1 1.070586 -1.204314 -5.675796
1 3.157901 5.933749 5.872670
1 2.459113 4.826584 4.583044
1 2.793705 6.748706 0.009034
1 -4.205310 4.482851 -6.632206
1 3.391465 -4.874659 -5.970849
1 3.849642 5.705704 -5.078524
1 6.798588 -4.338074 0.813574
1 -6.111346 -5.590959 -3.729063
1 -6.147151 6.436453 -4.577408
1 -6.321404 -2.546377 -2.290498
1 1.204291 4.963796 3.463805
1 -6.254573 0.448646 -0.838938
1 -3.826477 6.364763 -2.044697
1 6.172741 -6.520183 -2.949535
1 -1.258168 1.100366 -6.227094
1 0.860875 6.457493 4.087223
1 -4.262515 2.570633 -6.191500
1 2.850563 4.519466 -2.252181
1 -0.893284 4.826408 -3.226061
1 -6.554333 -0.273792 0.698867
1 -2.050861 -0.293562 -6.117701
1 6.040404 2.866935 -0.497234
1 -4.310883 2.408195 -2.853389
1 -3.006953 2.965909 4.294653
1 -5.484534 2.966814 1.189803
1 0.592620 3.391679 5.720486
1 3.148771 3.622448 5.665465
1 -1.188973 -0.650598 5.185476
1 -4.116389 -3.518594 5.465105
1 0.361145 5.164133 5.316536
1 -3.802571 4.462436 -3.149887
1 1.558237 -4.797996 5.598260
1 5.312772 -3.334584 1.887113
1 -3.444050 1.515725 -1.613770
1 2.833551 6.294567 3.707003
1 -6.179869 -6.425196 -0.219849
1 -2.327518 -3.647546 0.956415
1 3.909580 4.515950 6.776893
1 -6.409746 -1.108977 5.134694
1 2.818765 2.609228 -5.085994
1 -3.330528 4.792047 1.463830
1 -1.204997 -5.056980 1.700030
1 -5.519035 -3.994966 6.799236
1 0.578786 3.600942 -5.917894
1 -5.896357 2.281406 4.420969
1 1.725881 -1.951573 4.795024
1 -6.569593 6.600223 5.812666
1 5.729168 5.842751 3.842558
1 4.202561 5.582107 2.863864
1 0.610489 2.590569 -0.036807
1 -6.147358 -2.902971 2.287096
1 3.744647 2.083324 1.629358
1 -5.623842 3.027286 -4.960080
1 -5.273682 -2.363733 5.944515
1 -6.825443 -0.854860 -5.025518
1 4.834433 -3.691759 -6.179137
1 3.035270 -0.662250 -6.070476
1 2.481413 1.210698 -3.611228
1 -1.039109 3.390007 -0.355434
1 6.219665 -2.975290 -0.040344
1 -1.673017 0.191832 -2.669597
1 -5.482898 -5.667042 6.775624
1 -4.224441 1.135887 1.720383
1 3.143159 1.669906 -1.958617
1 -2.449396 -4.300127 2.584492
1 -2.388230 -6.406733 5.606085
1 6.351131 3.406679 -4.307272
1 -5.401607 -6.487707 1.289858
1 2.357784 1.724628 0.201768
1 1.301980 -2.960707 -5.754911
1 -0.697851 4.268580 3.792786
1 -0.613541 -2.076295 -5.796980
1 5.669143 3.240997 6.769697
1 -1.598163 2.251141 3.566227
1 1.249408 -0.967866 -0.301030
1 -0.778053 -5.582066 -1.941862
1 -1.849082 1.614822 5.501075
1 4.172860 3.513753 0.254880
1 2.002876 2.665810 4.955145
1 -5.496681 6.055921 -2.752814
1 -2.729180 -6.455870 -5.313872
1 1.253207 -3.673863 -4.161876
1 6.809319 -3.609151 -4.443830
1 3.292847 4.281502 -4.761350
1 -3.726513 2.789429 -4.426484
1 -4.640433 1.228877 0.029316
1 1.626763 -6.822697 5.645234
1 -4.642507 -1.950050 2.623824
1 3.493053 -6.153356 2.655993
1 2.876571 -6.806979 -2.774331
1 4.994672 -0.683788 0.774743
1 2.967552 -2.441886 3.614230
1 5.812056 0.887253 1.081204
1 -4.801522 0.264670 3.549409
1 -1.438345 -3.365781 3.583271
1 1.001335 0.268754 2.640169
1 -1.601209 -0.374630 2.162926
1 2.575370 3.311063 -0.682428
1 3.924543 -2.122607 -1.890462
1 4.303942 -1.539312 -4.974591
1 -0.308731 0.837091 5.686824
1 2.461769 -0.717740 3.811474
1 -4.672353 4.208395 0.310854
1 -1.787536 5.653857 2.578455
512
step:40000 columns:id,pos dt:0.02 cell:13.679807573413576,13.679807573413576,13.679807573413576 
1 -4.598091 2.963866 -0.245265
1 1.444273 -1.151571 1.214370
1 -6.064427 5.811796 1.804704
1 -1.597253 4.553578 6.198712
1 2.231751 1.258391 5.165381
1 -2.272509 -0.235797 -4.430620
1 -3.118454 0.548843 1.904752
1 -1.236853 4.689319 -0.879959
1 0.396783 2.359209 -5.250492
1 -3.190377 1.910118 1.083862
1 1.792507 -5.622022 -6.174178
1 -0.357330 -6.066317 -4.125810
1 2.634344 -3.596435 -4.694086
1 5.012979 -0.262028 -5.122918
1 4.676672 4.669131 1.222517
1 -5.853898 -1.206694 -4.325369
1 -0.726172 0.426154 -4.778025
1 6.062395 -6.595440 5.260267
1 6.803284 -2.664755 0.928069
1 3.335475 -6.410146 0.129364
1 4.108266 3.766454 -1.747600
1 -0.453013 2.662759 2.684041
1 -5.784796 -2.026188 -0.597572
1 -3.920570 -0.792757 -3.276740
1 1.936951 3.414998 -4.975523
1 -1.414874 -3.715943 0.178452
1 4.983269 4.150478 3.660957
1 0.232685 2.252661 1.174669
1 2.406831 -4.143213 2.453289
1 -6.037689 2.860130 -6.593191
1 0.750577 -1.764218 -2.687912
1 4.620119 2.367209 -5.750935
1 1.866554 3.229633 5.452979
1 1.600634 -1.656335 -0.811299
1 -6.440032 -4.814169 5.261024
1 1.015790 2.854997 -0.229592
1 -5.924372 1.070686 4.334067
1 -2.713480 3.662357 -6.232956
1 -6.146551 -6.422931 -2.103529
1 -2.465906 -4.602645 1.249970
1 -1.226498 3.812867 1.042248
1 5.312463 5.018202 5.799033
1 -1.701764 4.218586 -3.675833
1 -2.415928 3.534966 -0.153274
1 3.444287 2.485962 6.297831
1 -1.339111 4.333311 -5.714885
1 -1.132545 0.056963 -2.903596
1 -2.649658 -0.410378 -0.773300
1 3.847692 1.763630 2.092192
1 2.399910 0.200074 -1.153726
1 1.176522 0.825707 -4.854361
1 -5.533655 -3.354712 5.407331
1 -4.593521 -1.700213 -1.722431
1 5.167354 -4.045542 -0.184819
1 -4.121160 1.297917 3.023152
1 4.013974 -3.718804 1.717337
1 -0.302392 5.739291 -6.488453
1 -4.168310 5.742460 1.393196
1 3.612089 -1.078403 -6.798622
1 -0.915947 5.380006 -4.584350
1 -3.134680 -6.169439 -2.951037
1 4.306038 6.416015 0.997802
1 -3.398236 4.331712 3.437505
1 -4.185679 3.504627 -1.780085
1 1.896656 4.066875 1.314264
1 1.775571 2.455984 2.066642
1 -2.068457 2.902875 -4.696559
1 -0.866434 2.818639 6.040653
1 -4.443122 -5.006664 -1.352286
1 0.353473 1.227106 2.936876
1 0.306091 -3.158696 6.037448
1 6.367847 -0.798593 -3.421778
1 3.017333 -4.398987 -6.505100
1 -6.449973 -0.346089 -6.102668
1 0.331297 1.142997 4.972671
1 -3.524342 -3.562304 4.037122
1 3.754226 -1.661341 -5.191887
1 -4.258161 -2.181712 -4.119567
1 1.965410 5.942360 -3.651118
1 -3.923174 -1.723419 0.014959
1 1.010675 -5.519374 2.373857
1 6.740606 -4.555705 -0.982642
1 -1.121861 -4.037776 -1.481583
1 -6.022801 5.322257 -5.899888
1 6.814547 2.303082 -5.389391
1 6.514101 -6.508136 -5.375926
1 4.372417 -1.349085 1.124445
1 2.395234 -1.614840 -4.120266
1 0.563004 -0.377569 -1.510045
1 -0.054970 -5.571224 -1.917268
1 1.655505 -4.734627 -2.594040
1 1.444935 0.195300 3.715090
1 -0.941538 -3.771770 -4.084714
1 -2.770339 -5.710116 5.864093
1 -2.983792 -1.230573 1.034813
1 2.222327 -0.349804 5.542919
1 -6.565115 0.180615 5.700581
1 4.652835 -0.144806 -0.353350
1 4.826882 -0.997851 3.095622
1 -3.596411 0.359387 0.364342
1 3.238730 -5.176525 4.101108
1 2.896033 6.692904 -4.631450
1 -0.147255 -2.616978 3.160242
1 4.631064 0.853366 6.774581
1 0.525995 -3.873792 2.645346
1 -0.904162 6.480249 -1.213288
1 4.177192 -6.754341 -1.695764
1 5.871989 -5.204853 -5.208933
1 -2.111207 5.163329 4.484155
1 6.154997 -4.225341 1.843540
1 0.560644 5.795482 -1.518565
1 0.985206 -1.575752 6.496718
1 -3.914711 -4.367128 5.224609
1 0.189845 -3.893051 4.680765
1 1.139023 -6.742578 -2.318800
1 4.595959 2.509061 3.647197
1 0.008399 -4.447468 -2.915974
1 -5.321651 1.097440 -6.776086
1 6.473825 -4.138679 3.672152
1 -6.284242 -4.421993 0.575091
1 -6.224661 6.009867 3.427831
1 4.974593 -4.209575 -6.661500
1 6.563268 0.619818 -4.572872
1 -5.474936 0.339137 -3.867282
1 -5.013056 1.614611 -2.476194
1 -1.440019 2.009062 0.999752
1 2.061262 5.331912 2.704194
1 -4.894939 -4.042686 -4.902052
1 -6.451638 -5.734229 3.942777
1 -4.963862 6.010121 4.490066
1 -6.626763 6.041667 -4.353196
1 2.474516 1.408086 -2.750723
1 -4.249113 -3.186191 1.837056
1 -1.276418 -6.155784 -2.844816
1 0.158321 0.307546 1.576501
1 -5.582885 -6.441634 0.960581
1 2.516109 -2.460497 1.479459
1 -5.210082 -3.308379 -6.733288
1 -6.746159 5.188477 -2.750802
1 1.140581 -5.809553 -3.712925
1 0.814303 -4.272434 -4.625846
1 -6.270799 2.060148 0.720077
1 -4.347235 6.795862 5.921515
1 6.124568 -3.442935 5.950099
1 5.388618 -5.094413 -2.085318
1 1.244573 3.744995 2.970281
1 -3.836295 -4.954457 -5.975338
1 5.618740 -1.796394 -2.252756
1 3.029285 -5.656661 2.460524
1 4.648821 6.030187 -5.416281
1 1.922658 -4.809251 -0.829267
1 -1.867124 5.939272 -3.077144
1 1.485732 2.766408 -3.362875
1 5.486948 2.689075 6.572709
1 -6.519634 0.283464 1.604521
1 3.129696 3.424850 2.031002
1 -3.088225 4.956032 -4.916728
1 3.424815 -0.589035 2.432629
1 -1.667721 -1.777874 -0.016167
1 2.144571 -6.634392 3.463166
1 -3.516028 0.790024 -3.771938
1 3.080312 0.408667 0.717790
1 5.812085 -2.227747 2.328424
1 5.983711 4.747176 2.706096
1 -1.355618 -5.544789 -0.195406
1 -2.254224 -5.298739 -4.532456
1 5.449425 0.692977 -3.266215
1 6.718986 3.699269 -2.776042
1 -6.169134 -1.147291 2.617726
1 2.260613 -6.498267 -1.191734
1 -2.875346 -2.065280 4.818692
1 -5.596796 -2.733899 -5.163991
1 -5.388593 -4.600324 2.050899
1 5.205445 -4.863864 4.991871
1 -4.414607 -5.120926 0.586079
1 -6.784741 2.384963 5.540373
1 6.296482 -5.411065 6.459353
1 -2.209365 -1.232175 -2.564283
1 -6.584509 -2.729242 -4.001223
1 -2.997502 -4.124555 6.413350
1 3.859266 4.793502 -0.846943
1 -3.015961 -2.126284 -1.264268
1 -6.642662 -2.695916 4.034795
1 -0.285285 4.723573 -2.336133
1 -1.424578 -4.438871 6.300208
1 -3.624456 -6.428296 -6.248961
1 5.121376 1.360438 -4.560189
1 0.478148 -0.339674 -4.007540
1 -5.173482 -4.411917 3.693522
1 1.201199 -1.569192 4.586264
1 6.119839 5.401736 0.811269
1 -2.640782 -3.051748 2.451760
1 0.814689 -2.589797 -4.374584
1 5.255726 5.307524 -2.154991
1 -5.348878 -6.191529 2.642581
1 3.125365 1.330861 3.693699
1 -1.794978 -2.191109 3.527766
1 1.599143 2.018446 3.549714
1 -5.259183 4.087924 -3.099826
1 4.295767 1.564596 5.237346
1 1.826899 4.573783 4.249140
1 5.684468 -1.274233 4.656773
1 5.860905 4.015439 -0.612940
1 -4.729118 -2.299307 3.568484
1 6.039105 1.708794 3.722116
1 0.043711 1.363720 -0.545929
1 -5.683361 -0.698409 4.477406
1 0.320904 4.209085 5.028772
1 5.356936 -0.046872 -1.778509
1 2.636160 -0.762593 3.554621
1 3.684231 0.025591 -2.342480
1 2.368683 3.606042 -6.511327
1 -2.195729 -5.380464 -6.185814
1 -2.968749 -4.130018 -1.015960
1 -5.113988 -3.255061 -2.781195
1 -1.108095 5.696247 2.094101
1 -5.936960 -6.045791 -4.215374
1 5.597041 3.966668 -5.130251
1 -5.463430 6.718363 -6.241331
1 1.127253 6.757040 6.541765
1 3.589092 5.342841 -6.404486
1 -2.573369 5.907298 2.597389
1 -3.783572 -6.442887 1.383721
1 4.680151 -4.647892 3.038253
1 1.962380 -3.059795 -0.191748
1 1.361846 -5.126592 4.019626
1 0.536654 -3.099973 -1.603519
1 -0.220893 -4.599185 1.116199
1 5.908723 2.568082 -3.656646
1 -5.935992 3.698321 -0.911820
1 4.331675 3.115926 0.253592
1 -4.369117 -5.816055 -4.671425
1 -6.131023 1.367042 2.726772
1 2.176620 1.830334 -6.383366
1 -1.618814 -2.707673 6.049707
1 -2.463143 6.087479 -0.666633
1 -4.297156 -0.155411 -5.496646
1 3.559776 -2.638068 -3.277418
1 0.851713 6.380834 -5.055795
1 -6.086254 2.354134 -1.383960
1 -1.591443 0.726426 2.435052
1 6.818373 -5.986302 2.104982
1 -2.714712 -1.105884 -5.535296
1 2.523242 -1.486367 -2.453596
1 4.676553 0.628383 3.641138
1 0.457492 -4.981239 6.276032
1 -2.431642 -2.113314 -4.293018
1 0.903631 2.493087 6.509403
1 2.805995 -6.809154 -6.531476
1 -3.700608 6.668075 3.261308
1 3.334771 -4.359657 0.102611
1 -0.687719 -2.418208 -3.226092
1 1.002177 0.250749 6.545620
1 6.425206 -0.057522 3.588468
1 -3.148557 -5.805609 -0.410489
1 -0.699838 -4.280984 -5.772309
1 1.918629 -5.461209 0.803190
1 3.917294 -2.709026 -0.337309
1 -2.940482 1.635193 -5.085799
1 -1.779996 6.506540 5.859401
1 6.072390 -6.251448 -1.196545
1 -0.576202 -6.358621 -6.728235
1 -5.957224 -4.780905 -2.605229
1 -4.553512 -5.863192 4.378826
1 -4.657362 3.899369 -5.122550
1 1.667361 1.689872 -1.305786
1 -0.326951 2.982876 -3.845966
1 3.416539 -4.549059 -3.259034
1 3.680130 4.992115 2.559739
1 -1.718447 2.753161 4.478169
1 0.299312 4.514455 -0.105310
1 -1.255570 -1.235534 -6.748589
1 3.035485 5.433308 0.645788
1 5.657633 0.755598 5.030361
1 5.042741 -4.687123 -3.517588
1 -1.331259 -1.071356 2.134178
1 -6.091697 4.214374 3.437668
1 4.491338 -6.167300 -3.959553
1 0.982126 4.889040 6.417135
1 -2.970823 2.147381 6.274012
1 5.536259 1.611559 -1.433987
1 0.349278 -6.303740 4.713341
1 -3.763495 -4.951435 2.689003
1 3.592029 -1.900993 4.346046
1 -6.661104 1.451597 -3.026954
1 -2.306136 -5.995547 2.695436
1 -0.983188 -0.214793 -0.950103
1 -1.573214 1.641276 -3.684089
1 3.906195 -1.479858 -1.567786
1 -4.108232 0.319241 -1.773160
1 -2.961607 1.200819 4.450687
1 -5.613477 -0.239260 -0.493799
1 5.942516 -1.682192 -4.847771
1 0.613928 4.499115 -4.603864
1 -1.852503 3.032044 -2.312352
1 4.528202 -5.482350 1.301190
1 -1.481471 2.350578 -6.282519
1 0.351876 -2.480586 1.747291
1 6.227138 -5.630639 0.651504
1 5.274639 2.883771 1.870223
1 2.892926 -3.201590 -1.806032
1 3.787311 -2.197068 2.761740
1 0.423184 -6.268560 -0.205799
1 -4.717816 4.357945 4.519566
1 3.882749 2.047873 -3.037639
1 4.463510 -6.415755 4.210700
1 6.299068 0.527293 0.059160
1 -0.061201 -0.800219 0.476595
1 -4.239036 -0.781061 4.721281
1 -0.867525 -2.052404 -1.694007
1 -1.762877 1.376664 -0.561572
1 6.617406 -3.754921 -5.707955
1 -2.868364 3.695916 5.434964
1 -0.276837 5.757665 5.419692
1 -4.691800 5.333634 2.877602
1 6.582419 6.429122 6.621082
1 -2.164236 -6.480173 0.859853
1 -0.755951 5.799490 0.425484
1 -4.964709 -0.891826 6.577079
1 3.276555 -0.054644 -3.988594
1 6.583580 -3.551753 -2.660805
1 -4.962273 2.303307 1.523224
1 1.986119 -2.281808 3.110935
1 0.869698 6.025991 1.434564
1 3.875658 -5.588619 6.171356
1 -5.639410 -0.544986 -2.574364
1 -4.747188 -3.432503 0.239832
1 2.869965 4.025407 -3.166840
1 -3.151331 2.183147 -2.717230
1 2.951780 -6.147294 -2.778155
1 6.666815 3.576361 1.154223
1 3.920469 -3.982142 5.384363
1 0.327836 -5.589095 -5.807712
1 -5.807819 -5.284908 -6.055775
1 -2.213375 5.923218 -6.346788
1 -3.482102 5.352351 5.708452
1 -1.880595 -2.901832 -5.706166
1 -1.385202 6.702136 3.903648
1 -5.103480 5.145482 -1.635196
1 -0.232243 0.962822 -6.621608
1 0.232247 -4.394485 -0.648497
1 5.436205 2.817312 -2.019599
1 2.681188 -2.182714 5.740835
1 4.243797 3.841307 5.290839
1 -3.673022 4.803389 -0.529259
1 -6.817236 5.235389 -1.021269
1 -4.045970 3.055083 2.553508
1 3.795821 1.386874 -1.136175
1 0.343419 1.133948 -3.269938
1 4.523688 -0.991807 -3.449535
1 -3.673127 -4.592003 -3.140072
1 -4.950025 2.391607 5.541008
1 6.731339 2.846537 2.998255
1 5.557712 6.095206 2.254002
1 -3.906199 5.177171 -6.514192
1 5.513278 5.530659 -4.043779
1 0.314651 3.030189 -2.208503
1 -4.764974 -3.493504 -1.179476
1 -4.538882 6.657663 -0.404071
1 -2.496494 0.858584 -2.007019
1 -2.475784 -0.144547 3.489087
1 -1.014608 -5.628869 5.401625
1 -0.557064 -1.662629 4.908255
1 -4.467304 -1.732494 -5.890826
1 -0.416748 -5.253328 3.596692
1 3.917957 -0.409198 5.227923
1 5.051262 4.024417 -3.413803
1 1.232853 -3.620406 -6.153668
1 -2.242774 -5.048261 4.388024
1 5.130671 5.993222 -0.483312
1 -2.083599 -4.602040 -2.793197
1 6.349386 1.119264 -6.410777
1 5.069443 -2.945440 3.838467
1 -4.360357 0.830631 5.358903
1 1.760566 -0.132917 -3.088847
1 6.076596 3.842072 4.717617
1 4.904898 -6.218648 -6.199960
1 1.998153 -3.642547 5.870173
1 4.497338 -5.681693 -0.257777
1 1.183020 4.559974 -3.237047
1 -0.389344 -0.566984 3.874251
1 -3.190520 -1.480047 6.720419
1 6.520124 -1.001528 -0.877697
1 -5.086378 -1.635838 1.111221
1 1.358882 -3.939071 0.826740
1 -2.484148 4.103610 2.050071
1 -6.053447 3.853647 5.233003
1 0.072078 4.415443 2.090729
1 -5.241047 1.325577 -5.088492
1 -3.330782 0.301200 -6.807202
1 -3.042985 6.497968 -4.276784
1 -2.538412 4.432868 -1.984611
1 5.478386 -0.499308 -6.838824
1 2.610096 5.555960 -1.969024
1 2.341034 -5.396584 -4.552402
1 3.494347 -2.890456 -6.627711
1 -3.197133 -3.762724 -4.928710
1 -6.677029 -2.123012 -6.510655
1 -3.191643 -2.947763 -2.861693
1 4.821608 -3.431780 -1.984430
1 2.303280 6.747222 1.791667
1 0.072195 -2.337984 -0.143406
1 -5.321853 4.978925 6.412019
1 3.695109 0.345105 -5.710622
1 -0.837199 -1.321819 -4.567158
1 -0.494679 -6.284352 1.801396
1 5.321870 -2.209525 -6.276095
1 0.278540 -0.841031 -5.751396
1 4.373822 6.242394 5.839987
1 3.775516 5.402146 4.361629
1 1.601426 5.977785 -0.080476
1 -4.494791 3.373939 6.699102
1 3.810851 -5.166425 -5.316686
1 5.513817 5.229336 -6.145332
1 6.615422 -3.035862 -0.969727
1 6.022839 -6.610579 -3.118889
1 -4.663406 5.857121 -4.938280
1 -6.360992 -2.131468 -2.347217
1 0.428481 6.481512 3.126800
1 -6.465177 0.621179 -1.457980
1 -3.558578 6.412020 -1.912888
1 -5.316188 6.099527 -3.336465
1 -1.926311 1.369860 5.858683
1 1.400116 6.265152 4.820872
1 -4.194424 2.363560 -5.810329
1 1.946798 5.162150 -5.747092
1 -0.097908 5.954490 -3.220333
1 6.690234 -1.183100 0.976648
1 -1.839897 0.454340 -6.457988
1 5.950495 2.379882 -0.305130
1 -3.684322 3.628000 -3.585948
1 -3.497609 2.785242 4.135488
1 -5.532376 3.983130 1.807778
1 0.149989 2.719936 4.499019
1 2.640552 4.904281 6.107076
1 -2.400037 -0.436248 5.310335
1 -4.243887 -2.345960 5.572316
1 -0.132107 4.945163 3.667327
1 -3.826503 5.423389 -2.981821
1 2.225354 -5.733293 5.565030
1 5.120755 -3.036514 0.977649
1 -3.469722 2.018455 -1.069383
1 3.939077 6.544368 2.942722
1 -5.825844 -5.617441 -0.429212
1 -2.946151 -3.078207 0.540527
1 4.196060 3.838109 -6.551220
1 4.785559 -2.234583 5.911653
1 3.851975 3.054707 -4.694061
1 -3.916742 4.041628 1.022006
1 -1.268218 -2.613510 1.433961
1 -3.576430 -3.067158 -6.490608
1 0.031730 3.821716 -6.409283
1 -5.135591 2.474599 3.796890
1 1.723584 -3.410931 4.009496
1 -5.785734 -6.518583 5.414824
1 -6.493347 5.377116 5.307081
1 5.751641 6.026119 4.102383
1 1.376336 0.614436 0.112777
1 -5.969847 -3.084583 2.400310
1 4.621437 1.531640 0.583021
1 -5.947616 2.651312 -4.084248
1 -6.610029 -1.881610 5.583044
1 5.423596 -2.931044 -3.812650
1 4.568616 -3.432708 -5.005847
1 2.763895 0.454096 6.792844