512
step:10 columns:species,position,velocity dt:0.002 cell:8.44533753582401,8.44533753582401,8.44533753582401 
A -1.729280 -0.276410 1.279570 -0.934600 1.858500 1.158890
A -3.916860 -3.828940 0.817270 3.158180 -0.385250 1.098360
A -2.842930 0.724040 2.720360 0.928070 2.426210 -2.681350
A -2.812610 4.033060 -1.087970 0.408030 0.784360 -4.764190
A 1.417740 1.641150 -3.460110 -2.046840 1.584240 0.523440
A 3.708340 -3.896580 -3.174080 1.125300 -0.200300 2.402070
A 0.485600 2.436970 3.964890 1.532820 2.719560 4.111630
A -4.179030 0.871550 -1.100310 1.013730 -1.002620 -1.466690
A 1.003320 -3.446440 1.313330 3.010830 4.016230 -2.537650
A -2.548970 -2.567130 -2.268360 1.323020 1.061050 -0.100530
A -0.569870 -0.191650 -2.186220 2.909870 1.062610 -2.960540
A 0.824960 0.576670 -0.954600 -0.825500 0.842870 1.259150
A 1.635610 -0.326080 1.271830 1.984650 0.240900 -0.527840
A -0.464360 2.323740 -3.308980 -0.185460 0.663280 3.042500
A 2.660790 2.690670 -2.871020 1.974680 0.081760 0.671260
A -0.575210 0.712910 0.431640 -0.055040 0.241130 1.902100
A 0.034260 -2.795090 3.215610 1.426300 -0.234360 -0.235920
A -2.043970 -2.418900 2.784260 0.679920 5.105740 0.161640
A -2.269200 0.779550 1.934680 0.277130 0.775490 -1.359350
A -1.513550 -1.949380 0.285110 -0.282650 -0.527360 1.811160
A 4.080180 0.007070 -0.008260 -1.511460 1.167210 4.408230
A 1.984940 -0.655400 3.088270 2.588910 -1.166500 -2.195570
A -3.707490 -0.850320 -4.119120 -1.610820 0.764310 -0.471160
A -2.538240 -3.516460 -1.533260 -0.305590 1.642020 3.101710
A -0.083450 0.452130 -1.386560 -3.060930 -0.769820 0.898720
A -4.111810 1.594400 -3.649110 -3.005470 -1.183250 -0.147460
A 0.462050 0.308250 1.875380 0.834520 -5.694760 3.150200
A 0.929870 1.428120 -1.762940 -3.650750 -5.857850 0.623640
A 1.441680 4.148610 0.182230 -1.589460 -2.043880 -0.760750
A 2.062990 -2.302760 3.687650 -1.120170 2.237980 -2.094700
A 2.812440 -1.737500 2.921190 -1.584170 1.053220 0.056690
A -3.610780 2.125950 3.959420 -0.818880 -0.096220 1.532690
A -1.785550 -3.116090 -3.404440 0.561920 0.264260 -2.519630
A 2.404640 -2.506480 -2.579600 1.787440 2.007030 -2.045150
A -0.521580 -2.485890 -1.127030 2.160790 3.057230 -3.347600
A -3.087460 1.758310 3.204090 0.081740 -2.012990 3.571890
A -3.754650 -1.912570 -1.335780 -2.462930 -3.658680 1.459400
A 0.439920 0.058990 3.521740 -0.937190 -1.954640 -0.254890
A -3.127430 -0.223810 2.942380 -2.113000 -1.227630 -0.992270
A -4.143710 -1.713180 3.647660 -0.300310 0.769460 -0.413760
A 0.589410 -3.566260 3.586470 -0.687050 4.753100 -0.023880
A -2.735260 -1.878350 -2.903000 -1.219040 0.768230 -1.830700
A 3.352100 -2.627090 1.430960 -0.521450 0.296880 2.357100
A -0.104930 3.584270 2.892440 0.747580 2.663970 -0.099290
A 2.947560 1.633640 3.686890 1.595410 -1.708150 0.699860
A -2.974400 0.249290 3.700790 0.316380 0.939770 -1.534200
A -1.455410 0.903500 1.279400 -0.909290 2.035330 -0.133130
A 1.102550 -1.903360 -3.874670 0.851910 1.807720 2.861860
A 3.887060 -2.022540 0.509430 1.674020 0.007830 0.109700
A 3.406380 0.889300 0.658990 1.781290 1.827310 -0.701580
A 2.058600 -3.607310 1.238620 -1.587570 2.338720 3.467590
A 1.783120 3.353190 3.272930 -1.820170 -2.129470 3.253780
A -3.466900 0.222560 1.833070 -2.454660 -1.397970 0.920130
A -3.608210 2.661680 1.452390 -1.650090 -2.391160 3.947940
A 1.823860 0.252000 -4.218730 -1.713050 0.942980 1.908670
A 1.101400 0.536150 2.715600 -0.520860 1.615360 -0.399580
A 1.110710 -2.266870 0.193360 -0.338150 -1.024130 -1.024690
A 1.989170 4.101960 1.652250 2.085620 -2.652780 -3.426140
A 2.137410 -0.674140 -3.762050 1.136920 0.338490 2.182130
A -3.671130 -3.864820 -0.336840 0.794070 -0.900450 1.844610
A -4.056370 2.923680 -0.152450 -1.697760 1.600120 1.139600
A 0.266740 3.403840 0.824080 0.947690 1.294760 -1.633050
A -0.172870 -3.363500 1.034430 -1.706090 0.127620 -2.775590
A 1.675740 -0.305400 -2.806290 0.227990 -2.357330 1.864780
A -2.984770 -3.790780 -2.430490 -0.437620 -0.461990 -2.308570
A -2.332360 1.109090 -1.202640 3.449760 -1.106870 -1.559100
A 4.160980 3.777930 -3.884200 0.341020 -1.141950 -1.505060
A 2.986000 1.758190 -2.644350 -3.373630 0.087000 -1.135200
A 0.012430 0.977680 -0.674140 3.755720 2.120660 0.436010
A 1.848960 -1.634830 1.410300 -3.246820 -2.404340 -1.806140
A 0.742100 -3.904920 -3.814740 -1.915890 -2.240400 2.272060
A 2.530670 -2.977180 0.795930 -1.534190 1.780440 1.338970
A -3.239580 -3.482720 2.056310 1.662740 4.642900 2.239180
A 3.457460 2.760870 -1.615980 2.783410 2.981820 -2.001710
A -1.936340 2.021870 2.046590 -4.240650 2.521280 0.453510
A 3.203020 0.576380 -0.260800 0.580740 1.109940 1.752650
A -1.077530 1.235080 2.163360 2.722710 2.166540 2.562600
A 2.414030 0.047630 -1.113730 3.581060 -1.231860 4.017340
A 1.543070 -3.302350 0.388040 -1.049160 0.304530 -0.155830
A 0.848470 1.195210 1.500600 0.088750 -3.613720 2.333810
A -3.178020 2.121380 0.678350 -0.900990 0.534260 -0.316340
A -3.841000 -3.818580 -4.190190 1.193020 -3.758320 -3.842550
A 3.769740 2.403650 0.616200 1.250060 -3.189330 4.043160
A 0.058440 1.283840 1.963070 0.841910 0.538250 0.529400
A -1.737410 1.925180 0.375710 -0.645480 -0.609060 -1.932680
A 3.160060 -2.384890 3.814590 2.533760 -1.494030 -1.591640
A -2.303390 -1.249450 -3.908930 2.807600 1.839580 -2.514920
A 1.540360 -2.324890 -2.460120 -0.611880 0.037480 0.796660
A 2.792140 -0.233500 0.448470 3.061240 -1.555430 -0.064230
A -2.336160 -4.025260 4.164540 3.054160 -0.103720 -1.535940
A 3.396550 0.461150 -2.828380 -2.810720 -1.713010 -2.933170
A 2.796570 2.817600 0.912290 1.865220 2.994810 -0.258520
A -0.044570 3.966050 -3.434200 0.149440 -2.495250 2.804360
A -0.849220 -3.692360 2.089360 1.610370 -0.963050 -2.853960
A 0.029920 3.248870 -0.113030 1.573000 0.835630 -1.067590
A 2.669760 -3.757470 4.109550 1.555890 -1.141050 -0.008550
A -2.979260 -2.486100 -3.987830 0.973770 -0.586810 0.402920
A -1.865170 -0.313940 3.592170 -1.796170 -3.019610 -2.784080
A -3.205530 -0.036450 -2.368030 -1.774110 1.223590 1.029540
A -1.330540 2.551390 -0.941970 -1.678450 0.830600 -2.205310
A -2.092610 0.650530 -3.987340 1.397050 1.665520 0.265690
A 0.193810 -3.124220 2.340960 -1.002470 -2.189880 0.056470
A 3.498840 -0.081180 -1.267700 2.669100 -0.219100 -0.024230
A 4.074600 0.755020 -3.389930 3.900490 1.978830 4.508190
A -3.521440 3.652820 1.888020 -1.180440 -1.275150 -0.925310
A 1.547440 2.550920 -1.779220 -2.470990 1.303870 -0.216560
A 0.463280 -4.052050 2.459050 -1.768440 -0.963850 -2.911180
A 3.094140 -0.460070 1.565280 0.482580 -2.325200 -1.479270
A 0.085730 -1.940980 -3.906500 -4.311950 -2.804830 -1.004830
A -2.478570 -2.147030 -0.032620 -4.566770 1.904810 -1.448190
A -0.455290 0.290250 3.115220 -1.164830 6.537860 -2.487030
A -1.546860 0.281830 -1.789340 -0.718860 -2.614570 -0.548060
A -4.215540 1.729380 -1.603390 -0.496490 -0.351020 1.859090
A -1.077620 0.736890 -3.679300 1.355690 3.625460 0.861130
A -1.758480 -1.546240 3.553570 3.346510 0.656180 -2.271870
A -0.073880 -0.720760 0.074630 -1.049480 0.574430 0.116570
A -3.088480 -2.945580 -3.147270 1.854700 -1.909980 -3.292880
A -2.480430 3.083420 2.622900 -0.501770 -1.876350 0.411770
A 1.158710 -2.462020 1.345760 -1.130920 3.531790 -0.467010
A -3.135900 -4.040930 1.340050 -1.523820 2.286110 -3.492690
A -3.795720 -3.769840 3.114890 -0.204660 0.113720 1.755810
A -0.518940 1.587790 0.204920 -0.049540 -4.034890 -1.530170
A -2.544990 -1.181660 3.128550 0.744440 0.193100 0.457600
A -2.506750 1.410960 3.908590 0.448550 4.180020 0.948650
A 0.607180 1.299980 -3.072890 -1.104920 -3.459380 3.358450
A 2.262450 2.739750 -0.087260 -1.442550 -0.360340 -0.414060
A -1.414250 -2.545330 -0.550740 -1.290100 2.694050 -1.885850
A -3.035280 -0.559130 -1.269720 -1.851600 0.432420 1.517310
A 3.831370 3.686810 -1.926030 1.367330 -1.992810 1.068810
A -3.488290 1.012900 -1.950130 0.172090 0.976010 -0.703460
A -3.129870 -2.949170 1.245750 -1.431580 3.388020 4.501440
A -0.773710 -3.785050 3.211300 1.417760 -1.516430 -2.611760
A 1.910800 2.650100 2.612270 3.056370 -0.291820 -0.811940
A 3.406560 -3.022680 -3.737600 -3.013840 3.622600 1.367050
A -1.284270 -3.776480 0.465000 2.535450 -6.269210 1.253110
A -2.247390 -3.425850 2.576960 0.442850 0.153360 -2.182080
A 3.883270 1.265380 -2.422550 -1.441800 1.181630 1.058520
A 0.987680 -0.666020 1.942760 -0.025540 -1.943710 0.170890
A -1.684110 2.817260 -2.247030 -1.676830 0.776790 1.433960
A -2.568420 0.246610 -3.065430 0.878550 -2.556170 -1.289830
A -1.365980 0.107650 2.094860 2.515980 -0.099190 2.105260
A 1.780920 1.860720 -1.201180 1.895020 1.093700 0.527130
A 2.406760 -2.002740 0.647750 -1.154520 -0.483430 -0.194690
A 0.048080 2.067120 -2.551980 2.411030 0.249580 0.869520
A -1.077930 -1.893990 -1.756750 0.739550 2.275260 2.593820
A -0.487740 3.997330 -0.535710 -0.601760 0.794040 -3.751610
A 2.354560 -4.180240 -3.224390 3.258660 1.454450 -1.571170
A -0.903290 1.771450 1.233490 1.486470 3.328470 -1.882890
A -1.895610 -1.973330 1.385280 1.361830 -1.410320 -0.640770
A -2.374620 0.380840 1.029410 2.303530 -0.924990 -2.451840
A 2.791400 -1.237990 -0.113460 -3.699640 -0.203730 0.340040
A -1.523390 1.610680 -0.726190 0.193800 0.865860 3.303800
A 1.095590 1.908960 2.200480 -1.926580 -1.313190 -2.574820
A 1.869310 3.430780 -4.161970 -0.623260 -0.906680 -3.123230
A -4.064640 2.598810 -1.826720 0.165850 3.935290 -0.400410
A -0.343180 -2.517270 -2.487030 2.070630 0.633010 0.430090
A 1.898000 -4.181610 -2.344860 -1.940020 3.124820 0.031640
A -1.747160 3.575180 -0.943290 2.651880 4.102020 -3.652240
A 0.864990 -0.472220 -1.798020 -1.283260 3.441250 0.729820
A 2.728040 -0.113320 4.093490 -0.886270 2.612700 3.007030
A 1.614840 3.466400 -2.954200 0.490790 -0.816390 -4.774430
A 3.593830 0.973290 3.296220 1.498460 2.994350 0.475240
A -3.590390 0.375780 -0.394930 0.279880 3.042790 0.179000
A -1.033250 -1.148400 1.369530 -1.056900 -0.598260 -1.614790
A -1.468650 0.077630 0.395600 -3.702070 0.375300 -0.523050
A 1.210900 2.858390 1.818020 0.758170 -0.428580 2.533020
A 3.601300 -1.705090 2.042400 0.209690 -0.125770 -1.104250
A 1.708110 -0.256690 -0.190870 2.980610 -3.569240 -0.364910
A 2.696730 4.071850 0.721050 1.494200 1.828310 0.236920
A -3.259730 2.772420 -1.307880 -1.814720 0.638370 0.548910
A 1.552830 -1.207270 0.392660 1.207190 -1.414250 0.461210
A -0.245010 -3.380120 -2.071350 4.496080 -1.831340 1.505240
A -3.889100 -0.810710 -0.748360 1.141340 -0.058170 0.880090
A 1.946760 1.569370 2.995630 -0.870390 5.435120 0.506070
A 1.628770 1.172790 0.888510 2.296660 0.910550 -0.417090
A 3.151660 1.331110 -3.557910 -0.971350 -1.451540 1.194580
A 2.006990 -2.380450 -1.510280 0.646510 0.670500 1.382360
A 3.189960 3.894060 -1.007090 0.005960 2.285070 2.336420
A 3.974570 -3.967840 -0.746450 -0.914580 -0.217140 -2.268360
A -3.412500 3.849880 3.712530 1.651990 4.061620 1.213580
A -0.795790 -1.911010 -3.490480 -0.002960 -4.123020 3.731490
A -0.970670 3.583030 -1.822570 2.015280 -0.153710 1.232400
A -0.829970 -1.289970 0.443410 -0.346000 -3.516030 0.571760
A -2.820680 -0.702110 3.895720 -0.722100 2.703220 1.930090
A 0.928300 2.030690 1.245620 0.184350 -0.272310 -2.285120
A 1.211750 -4.139920 -1.495710 -1.407790 -0.231400 0.845480
A -2.524820 -0.278670 2.110330 1.710950 2.260150 -0.952870
A -0.960340 -2.945880 0.202450 -0.479350 0.167180 2.622700
A -0.718580 3.594190 0.429720 -2.244630 1.856380 1.834680
A 2.738760 -3.906040 2.293590 1.654310 -1.511410 2.744310
A -3.819720 1.143330 2.670520 -2.334900 1.990510 -2.119460
A -1.256460 -2.604310 -2.786620 -1.462760 -0.799580 -2.890220
A 2.937190 1.802560 0.636470 -0.965500 0.977840 -1.032990
A -2.881400 0.402410 -1.429520 -3.816450 0.806780 0.742930
A 0.846180 1.664320 -0.865670 0.611970 2.569270 1.993740
A 3.442160 2.549150 1.867460 -1.796560 1.936280 0.278730
A 0.962610 0.235880 -3.398240 -3.785400 2.500990 2.678750
A -4.055390 -2.477010 1.395190 -0.960060 3.149420 2.728060
A 3.586270 -0.634970 -2.319330 -0.166590 0.916490 2.092990
A 3.078220 -2.427930 -1.119680 3.481010 0.406080 -3.016750
A 2.073070 -1.927070 -0.611040 1.206980 0.761710 -1.536120
A -2.811500 4.065760 2.583360 -0.691380 -2.675920 1.571570
A -1.837460 -0.434990 -1.097650 -1.221220 -0.314260 1.833710
A 1.460710 -3.635980 3.914480 -1.618240 -0.198170 -1.724860
A 2.110080 3.039540 1.795620 2.435380 0.612380 1.812830
A -1.176370 -3.581850 -4.050850 -1.553840 1.674070 5.289630
A 3.887090 0.024690 0.886180 -0.780280 0.996220 2.357580
A -2.211120 1.986310 3.065130 0.986640 0.356710 0.254960
A 2.320530 0.704780 2.466580 -1.290510 -1.502460 -0.983490
A -0.269350 3.504020 4.108260 0.876260 -1.174530 0.526800
A -3.034070 -3.453170 0.384880 1.540900 -0.631310 2.676320
A 0.029700 -0.351950 2.634800 0.311110 -3.224130 1.480140
A -1.697190 -1.848800 -3.307360 -0.811030 -0.406730 0.886540
A 0.792510 3.077490 -2.906970 -1.408560 -4.519400 -1.585420
A -2.914070 2.924960 3.852710 -3.623910 0.590400 0.172480
A 0.930830 -2.338160 2.627200 2.600600 0.651410 0.587060
A -1.005290 2.156760 -1.807610 -2.793020 1.237200 1.206720
A 1.780040 1.230500 1.827150 1.133760 2.658760 -1.121670
A -3.726650 1.289100 -2.862930 1.089960 -1.232170 0.434890
A 0.379450 -0.674880 -3.883700 4.679260 1.088500 -1.101570
A -0.448860 -2.538100 1.972380 -1.143190 -3.896190 -2.669200
A -3.877130 2.115490 -0.876560 2.042750 -1.485410 -0.321750
A 3.019110 1.083070 -1.743250 -3.080330 -0.056920 -1.875470
A -3.449110 -0.211380 1.003250 2.275190 -3.609020 4.880990
A -4.217370 -3.535810 1.911470 -0.425380 0.746960 0.739890
A -2.376420 -4.207900 -0.203210 -0.063680 2.933510 -4.045740
A 3.351650 -1.952540 -2.933150 0.155510 2.727210 -3.356340
A -0.802500 2.660610 -0.123640 -3.794050 -2.585520 2.386310
A -4.160110 -2.803620 -0.443760 0.403490 -3.814870 -0.701040
A 0.105530 -1.769200 1.559630 -0.675510 0.553130 1.678680
A 1.470870 -1.378930 2.574880 -1.146450 0.521980 -1.191150
A -0.854880 -0.058520 4.081700 -0.603950 -0.436610 -1.812830
A -2.722880 3.602520 -2.954610 3.827020 -0.867320 -3.601110
A -2.961440 1.213610 0.806720 1.497300 -1.830730 0.597600
A -0.366340 -2.133510 -0.214340 -2.221620 1.609580 -3.217690
A 0.605340 3.635690 -0.950800 0.597310 -2.993510 -0.362430
A -1.426550 0.999180 0.182470 1.948860 -2.008970 3.940080
A 4.210240 2.190510 -2.891810 -0.051400 1.137020 -3.457820
A -3.775210 -1.236100 2.478420 -2.696080 0.786690 0.539540
A 3.994520 3.142110 3.902380 -1.724720 -0.974800 -3.362800
A 0.642110 2.577970 -1.021240 -2.767680 -1.186430 0.275330
A -2.851130 2.505900 1.884010 -1.794650 -0.176780 -2.254950
A -2.928260 3.374060 1.201700 -0.720900 2.504820 -2.850840
A -3.546930 -0.887980 -2.724140 1.900520 -1.799290 1.177230
A -0.280840 1.221220 -2.049600 -0.005840 -0.344420 -0.048720
A 3.203000 2.574510 -3.915390 1.256420 3.855420 1.154970
A 4.167780 2.026180 2.308480 -2.050430 -2.905790 -0.663940
A -4.208690 -2.661530 3.407150 -0.767630 -1.165380 2.313340
A 2.200050 -4.190030 3.422540 1.964480 -0.999160 2.384110
A 2.886990 -3.851840 -2.471840 5.763720 -0.968890 -1.539510
A 0.188090 1.066720 2.971660 -0.260030 -0.140580 3.029260
A 3.626610 -0.996030 0.411630 0.651100 1.119290 2.068850
A 3.466650 -0.028720 3.381470 2.065690 0.482020 -0.832150
A 1.022560 -1.999820 -1.084280 -1.105800 -2.114470 4.346960
A 2.637980 2.214630 -2.012350 2.834640 -0.460480 -1.339670
A -2.016230 -1.142180 -0.370720 1.220390 1.429250 -0.857850
A 3.422240 -3.791190 -1.567630 -1.566920 0.012140 0.906510
A 1.341280 -2.857680 -3.317680 -1.228570 -0.091310 -0.012380
A -0.083960 -3.032640 -3.551090 -1.948170 -0.897790 -2.229380
A -0.753740 3.080660 1.190030 -2.694420 3.021360 0.174290
A 0.617220 -2.799700 -4.181400 -0.723720 0.286310 0.831550
A 0.634240 0.700920 -2.270610 -2.067220 -0.560250 -0.313010
A -0.595560 3.317440 -3.002970 -0.507820 0.816890 -1.160380
A -1.974990 -1.695180 -1.264720 -2.858200 -1.739150 0.026730
A 2.172340 0.614900 -0.042180 0.794670 -2.042440 -0.584110
A -0.007420 -1.813200 -1.416880 0.942360 -0.203190 -2.955840
A -1.415350 4.168690 -0.298060 -1.816370 4.167620 -1.264480
A 0.634750 -2.973370 -2.475310 -1.450160 2.983260 4.042710
A 0.909620 -1.120190 -0.247740 -1.688840 -3.474570 0.125300
A -0.009810 -1.732480 2.795680 -0.027500 -2.219140 0.847360
A -0.816480 -1.053730 2.736280 -0.362460 0.679500 0.401290
A 2.818370 2.211830 2.565120 -0.615200 1.345450 -0.462180
A 2.568900 0.184370 -2.363200 0.780590 -0.277580 0.574920
A -1.667350 -0.806560 2.372580 1.598550 -3.291570 1.142550
A 3.438590 1.990670 -0.958720 4.045080 -2.511130 0.014550
A 2.818380 3.450690 2.804700 -0.173520 -1.147310 -0.630420
A 2.585610 -1.549060 -3.748740 -0.380620 2.910970 -2.466420
A -2.987250 -1.059790 -0.372290 -2.924430 1.259060 -2.253150
A -2.813620 1.612510 -2.981850 -0.608240 1.064920 -1.251130
A 1.857760 2.310810 1.196680 2.830190 2.690510 -0.360570
A -0.179120 2.566730 0.617500 3.385910 -2.240960 0.999780
A -0.330420 -3.740870 3.961120 1.486750 -0.660340 2.830010
A -1.802820 2.733230 0.806930 1.114860 1.836690 1.404940
A -0.242880 1.684840 -4.113250 -0.897910 4.136010 4.245060
A -0.627390 -2.454550 0.990800 -0.730610 -3.466790 2.014410
A -3.096000 3.623340 -2.001000 -3.273800 -2.560060 4.724630
A -0.745200 4.146550 -2.478230 2.442980 -0.632570 -0.111730
A -1.076840 -2.605470 -4.148020 1.108700 0.777740 2.105290
A -3.230480 3.381820 -0.379630 0.769960 4.217410 1.815460
A 2.146180 2.412500 -3.685380 2.501180 3.293090 -0.388790
A 0.389330 2.155850 -0.063590 0.258750 2.447540 0.581130
A -3.977380 -0.861070 3.371410 1.646010 -0.658770 0.740940
A -0.093660 -4.097690 -1.351520 -0.438960 0.913330 -1.816080
A -2.661690 -0.396120 0.173580 -5.615450 2.573400 -1.521690
A -2.840640 -3.666350 3.423200 -0.878990 2.090790 -2.869730
A 3.094060 -0.591910 2.813070 1.667310 1.752940 0.846120
A -0.918870 -1.084260 -0.679620 -0.418210 0.052510 -0.914780
A -1.312650 -1.099590 -3.980850 2.325270 -1.651890 -5.173090
A -2.187760 0.284480 -0.522130 -0.390980 1.649370 -0.341100
A -2.557080 1.463760 -0.276360 -2.381840 2.307330 -0.242360
A 4.107840 -0.822260 1.363370 -1.141570 0.697970 3.106810
A 2.581400 -0.916040 -1.037210 -0.964480 -3.024810 -1.909750
A -0.641060 -0.269150 0.995340 -2.718190 -2.217800 2.064610
A -1.023140 -1.159700 -2.792320 -3.199200 1.632390 -5.786620
A 1.543150 -3.038910 3.064480 -1.000890 -1.034080 0.302720
A -3.007060 -1.625690 -1.789160 0.668430 -3.189330 1.353700
A 1.205000 2.083560 -2.620280 -0.894040 0.546490 -1.936680
A -4.092910 2.705630 -3.862970 2.405110 -0.727080 -2.249320
A -3.914970 -2.658080 -3.468130 0.575270 -3.114640 -0.066870
A -1.195930 3.942620 3.836940 3.139550 1.528230 -0.507120
A 3.078150 -1.322060 3.815620 -4.329820 -2.554330 1.187200
A -1.509830 1.228740 -1.557740 -1.414100 -1.041650 -0.049300
A 3.178240 1.345670 2.342200 -0.277800 1.370330 -1.951800
A -0.230320 0.797450 -2.985760 1.946610 -0.443350 1.200500
A 3.588740 0.332680 -4.190270 -4.742780 0.377110 -3.894020
A 3.791150 3.456680 1.115240 0.447920 -2.472720 -0.204230
A -3.473310 -1.724470 -4.073900 -0.719750 0.065480 -1.193010
A -3.077180 2.886770 -3.531740 1.296420 -0.707890 -2.053800
A 0.308400 1.159400 0.745570 -0.668240 -2.030510 3.992450
A -2.211320 3.795370 -2.097590 2.029470 -1.780720 -0.642800
A -1.194310 3.897910 -3.545730 0.300020 1.643110 2.151070
A 0.201420 -0.615850 -1.093890 -0.797260 2.913570 3.337000
A 0.483440 0.187430 0.036700 0.954680 -1.147850 1.691230
A 3.203010 -1.456090 1.144790 -0.504920 -3.615300 0.309940
A -3.448120 -3.395190 -1.370650 1.832280 -1.318050 -2.878050
A -2.797250 2.105910 -3.937740 3.328230 -2.875990 1.150290
A 4.032150 -2.933150 -1.691690 0.661300 -0.623020 1.866920
A -0.486940 2.691710 -2.337300 1.359800 -3.654910 2.279610
A 0.922140 -0.595960 2.936370 0.855820 -0.537370 1.602220
A 1.603030 -3.779150 -3.357310 -2.156540 0.319440 -0.272580
A -4.115700 -0.220680 -3.010320 -2.305900 -1.470810 3.364830
A -0.718250 -0.162330 -1.099980 2.773990 2.411930 0.041490
A -0.292050 1.917940 -0.895420 -1.101720 -1.052340 -0.414430
A 1.884190 0.851950 -1.016730 -1.373680 -2.368600 1.922230
A 3.567060 4.065910 2.337680 -1.490590 0.590450 0.509320
A 4.163270 -3.132130 -2.634980 -2.253570 2.093580 -1.237320
A 0.490640 3.379970 -1.862160 0.394130 -2.210350 -0.965260
A 2.355890 -2.482270 1.877830 0.081920 -0.396450 -0.897630
A 3.849090 1.765050 3.948950 -1.556990 0.574650 -0.571900
A -1.749760 -3.851830 -1.037840 -5.816230 -1.898290 -4.062820
A -0.912320 3.091120 3.624580 -1.007150 0.378730 3.882940
A 2.331330 1.143290 -4.058860 1.236330 -4.371350 -0.226890
A -0.870380 -3.435240 -0.835620 1.102040 4.196430 -2.368710
A -0.991650 1.635560 -2.933390 1.464710 -1.528590 2.905200
A 0.729200 -1.630160 0.833070 -2.513060 -2.769450 -5.140500
A -3.305240 1.898740 -2.213620 1.453590 0.725120 -0.125230
A 2.743100 -0.803960 -2.632920 3.599880 -0.221130 1.278950
A 0.659460 1.452050 -4.056480 1.718130 -1.446180 -3.616360
A -2.150740 -3.031560 4.070590 -1.416840 1.112220 -0.157590
A 1.814860 2.238540 3.794460 0.205420 -0.095560 -3.288340
A -2.596060 -0.588090 1.294420 -0.930960 -0.479860 2.887400
A 3.844720 -0.582240 -3.853950 1.230110 -1.038800 -0.909950
A -1.121680 -3.259060 1.264590 -1.231540 1.769800 -4.622990
A -3.198010 -1.871740 3.082760 -3.664810 -1.898800 -2.497500
A 1.858790 -1.529610 -3.115510 -0.213990 -1.924140 2.533170
A -2.937930 -2.509880 2.054020 -1.126790 4.393970 -1.274730
A -3.105100 1.470190 1.760070 -0.964300 -0.615220 0.083820
A 3.792930 -3.091250 0.410430 1.188830 0.060800 -0.058150
A 0.316320 3.140620 1.986350 -1.973250 -1.956170 -4.362760
A -2.121980 3.404630 -3.790570 -0.050490 0.924080 1.062840
A -1.802490 -3.585350 -2.373300 0.258790 -1.593780 -2.010780
A -3.667950 -1.291110 0.233540 -1.901260 -2.888880 -1.317110
A -3.182410 -0.362470 -3.531810 -0.261280 4.252500 0.940830
A 1.679610 0.181550 -1.995250 -2.797140 0.928450 -1.129360
A 0.652710 3.436500 -3.840980 3.252190 -0.155430 0.634100
A 1.195930 -1.679800 3.563310 -2.627350 0.446170 2.169060
A 3.905250 0.751510 1.671560 2.493420 -0.151900 -0.837250
A -2.509990 -2.062810 3.658900 2.287940 1.152680 -2.734940
A -3.902410 0.828600 0.764660 -3.716580 1.151630 -1.178520
A 2.295640 1.702450 -0.281610 -2.050410 1.412970 -1.778990
A 1.459300 -0.089900 -1.059380 -0.732040 -3.392110 2.643860
A 1.010940 -1.036240 -2.825010 -1.950370 -1.831270 -0.833610
A 2.761940 2.635520 3.343810 2.316630 -1.874790 1.385710
A 3.250990 -3.773720 0.151080 2.153390 3.066770 1.176000
A 3.768160 3.006960 -2.475990 -0.587970 0.606760 -0.938380
A -0.109200 2.348930 1.533020 -0.509840 -1.862930 -1.708430
A -0.300480 3.048810 -1.206510 3.207890 0.830980 -1.600640
A -2.296620 3.615310 3.531980 -0.405160 -1.058960 0.682560
A -1.818400 4.171340 1.808900 3.585610 -2.793010 1.019340
A 1.806950 -3.486050 2.097120 3.830960 -1.534240 -1.602040
A -1.983290 -2.751890 0.408160 -2.730870 -1.480890 2.641560
A -3.344930 3.207790 3.023050 -3.297620 2.339290 0.947240
A 1.380150 0.901850 3.692330 1.908810 1.124290 2.444220
A -1.523870 3.259380 0.009610 -1.228210 1.194380 -1.674850
A 2.525440 -2.856450 3.070820 -1.315050 1.089730 1.112160
A -0.458470 2.294600 3.330280 -1.085370 -2.671040 -1.011990
A 0.658000 -3.772650 -0.780800 2.148620 2.962990 -0.951330
A -3.647760 0.991780 3.634700 0.061820 0.126540 4.961400
A 1.175640 0.973520 -0.155250 -0.545680 -1.944210 -3.454000
A 2.355030 -0.992240 2.079810 -2.381410 -3.669480 0.307710
A -0.950280 3.941220 2.462940 -0.118040 -3.314090 -0.109010
A -2.228760 1.855090 -1.805200 0.847170 -0.962470 -0.058400
A -2.730230 2.713430 -2.473760 -0.848430 -0.541220 1.375190
A 3.103970 0.288820 2.505470 2.137790 1.116360 1.107070
A -2.047690 3.772750 0.730750 -0.980050 1.921690 1.895620
A 1.015810 2.766820 3.045300 -1.528130 -1.118270 -1.744440
A 3.973370 -1.623150 -0.426810 3.362990 -3.529650 -1.595710
A -3.619630 1.501080 0.007410 1.312250 1.195500 3.810650
A -4.116580 1.798260 1.440640 1.155100 -2.198970 -3.156770
A 1.622660 4.128440 2.627010 1.532970 -0.350400 1.308080
A -3.559060 -2.558710 -2.095310 -3.292100 1.399120 -2.590760
A 3.472060 -2.571060 2.722110 0.597780 2.233630 -4.389770
A -2.575880 -1.358980 1.774320 -0.975790 2.659370 -0.540240
A -4.074310 0.134200 2.590910 -2.602120 0.854330 -1.078880
A 4.083040 -1.803380 -2.187400 -1.870830 -2.073940 -2.018130
A 3.815380 1.362050 -0.086570 2.225500 3.190530 -0.537610
A 3.261470 -2.731040 -2.526450 1.581860 -2.161930 1.578650
A -3.723650 -2.719280 0.547400 0.349470 2.063430 -0.506610
A -2.455120 -2.490460 -1.245160 -1.063580 3.002930 -0.542860
A 0.275160 -0.891030 1.400390 4.486380 -0.618350 -0.238650
A -2.986750 4.042060 0.550210 -1.072210 2.803360 -0.405790
A 1.024710 4.058570 3.395150 1.150320 -4.308690 2.174290
A -3.279930 -2.792600 3.678540 -2.000010 -1.743500 0.716260
A 2.601560 0.258660 -3.390610 -2.050480 -0.521180 1.003780
A -2.508710 0.703820 -2.325450 -0.531510 2.634840 1.465040
A -2.420220 2.427560 -0.070150 3.473650 -2.992940 3.551800
A -1.163590 0.535780 -0.772560 2.977730 1.599060 2.445590
A 2.351780 -3.783370 -0.173980 -1.375390 -0.287700 -1.230840
A 1.389580 3.197790 -0.208650 0.663350 0.403820 -1.225930
A 0.994000 2.784160 0.647330 -1.772750 -1.146090 -2.614750
A -2.000560 -1.669660 -2.322810 -0.894410 3.203590 0.156110
A -1.675330 1.184190 -2.461040 3.443120 -0.522050 -1.238070
A 1.548460 -0.646440 3.887550 0.055730 -3.560670 2.323170
A -0.486650 -1.169760 -1.907130 -0.533130 -1.291820 -0.155040
A -3.819750 -0.890200 -1.854800 -1.787010 0.620930 3.758730
A 0.875810 0.256330 0.979220 0.573110 2.246910 -2.127340
A -0.795670 2.211350 2.136250 2.678380 -2.720790 -2.548490
A 2.240240 3.921080 -0.951530 -1.937420 0.247280 1.951440
A 3.282680 2.807330 -0.567560 2.446150 -2.805880 -0.671740
A -4.190080 3.921770 0.075990 1.024530 0.081480 1.880540
A 3.121130 -2.423560 0.131020 -2.132360 1.654910 -2.486450
A -2.335240 -3.597220 1.319010 1.068640 -1.630400 2.245010
A -2.487490 -0.770640 -2.960360 -3.229910 0.544280 2.874440
A 1.524880 -1.197380 -1.116270 0.072240 1.438310 1.929860
A 3.850250 -2.069220 -3.899670 1.124740 -0.272990 1.212270
A -3.763890 4.209430 -3.144930 -0.195130 4.854420 -2.309040
A -0.036700 -1.571660 -2.884290 -3.914430 -0.611980 0.961190
A 4.183790 3.647230 3.058350 -0.751460 -0.235750 -0.196910
A 0.790090 -0.629100 0.601990 -0.663760 2.181040 0.685350
A -1.687940 -3.384740 3.349050 1.003680 1.043840 -1.730820
A -0.889310 -3.473790 -2.995520 -2.229540 0.652980 -0.027930
A -1.486960 -0.855230 -1.932670 -2.795040 -1.030580 -1.682790
A -3.172230 -2.053190 0.947720 -0.503350 -2.891940 -2.670810
A -2.198720 -1.232840 0.754220 0.811480 -1.978200 -0.473830
A -2.013040 3.094680 1.741600 0.084810 0.880470 -3.680110
A -0.738550 1.101140 3.708060 2.689990 2.224710 -0.499000
A 2.908760 3.539970 1.765640 -3.614240 -0.780840 -2.045670
A -1.772860 -4.205100 2.886910 1.812280 0.268470 -0.247780
A -1.876660 2.270510 4.012530 0.449580 -0.937360 2.049320
A -3.970210 0.073130 4.097790 -3.073850 -0.775700 -3.073390
A 3.494430 -1.182240 -1.312000 4.326210 -0.057840 -2.268790
A 1.475930 2.169410 0.146420 0.054950 -0.912590 3.183940
A 2.228960 -2.876980 -0.110760 3.031330 -1.220030 1.653330
A -1.187170 -2.884580 2.482480 0.532870 1.656070 2.831920
A 0.823610 -1.989060 -2.959290 -1.181230 -3.272760 -0.837990
A -3.903030 -2.389450 2.507230 -0.205130 -1.652170 1.991540
A 3.351330 3.638040 -0.028880 2.694010 1.865130 -3.716010
A -1.166930 -2.901540 -1.686620 -3.217320 0.922830 0.408480
A 0.012690 -0.548570 -3.020240 0.695450 2.429800 0.328760
A 2.830060 3.766000 4.221670 1.625150 3.377810 -1.597980
A 2.982570 3.473030 -2.189180 0.480600 -0.446710 -3.124300
A -3.980070 -1.677500 -3.300810 -1.002110 1.421650 1.989960
A 0.170500 -3.049770 -0.045550 -0.640640 -0.428410 -1.790440
A 1.131940 3.847510 1.608620 0.024140 0.610530 -0.157140
A 0.959590 -1.485200 -2.038870 0.568630 2.658880 1.208020
A -1.197980 -1.795760 2.082570 -1.182810 -0.497700 2.264050
A 3.133810 3.496100 -3.388150 -0.805820 -0.629030 -0.817850
A -1.969600 -0.320700 -3.661940 -1.035450 0.071980 4.702560
A -2.427630 -3.241860 -0.511370 4.084510 0.772190 -2.061860
A 2.024190 1.112890 -2.018580 0.663860 -1.512360 -2.904080
A 1.883620 3.468060 0.879980 0.332410 -3.251890 -0.227590
A -1.220790 1.848240 -3.870470 -4.842080 1.408130 -0.232590
A -2.072850 -4.178650 -3.172890 -1.376230 -0.153900 -0.310140
A -1.281770 2.989390 2.505560 0.214360 1.910670 0.997960
A 3.686360 2.499400 2.892250 0.802010 -1.435500 0.311980
A 2.460550 0.722690 3.446350 -3.708500 0.869810 -1.661050
A 2.540610 -3.433080 -1.215210 1.338950 -1.565610 0.178960
A 2.349760 3.649680 -0.133420 4.526540 4.126240 -1.543430
A 3.549030 -3.725900 1.120910 -1.756170 -2.783300 0.550040
A -3.391300 -2.107420 -0.486670 -0.935980 0.440290 0.667530
A 0.017370 4.216040 1.416940 -3.607600 -0.302950 -2.942810
A -0.965590 -0.385730 -3.394410 -0.298320 -3.141330 -1.134580
A 3.635830 -3.895390 4.050270 2.185590 0.106740 0.353330
A 1.125140 1.798920 3.339380 3.162930 -2.833460 0.233270
A -0.883430 -2.293220 3.378700 0.884730 3.469520 -0.119450
A -1.731010 0.680080 3.029750 3.103030 -1.676190 2.343610
A 1.910280 -3.178590 -1.941060 -0.238430 2.300750 -0.001130
A -3.641490 3.049160 -2.725110 1.930430 1.526210 1.853000
A 1.484670 -2.894040 -0.868260 2.217870 -1.933380 -1.080720
A -3.776000 -1.534630 1.491920 -2.267720 0.866120 2.880820
A 0.448180 -3.141510 -1.525330 1.386900 -2.242070 -0.515520
A -1.922210 1.439520 -3.411520 -1.772890 -0.554010 0.175590
A -2.078310 2.548580 -3.184530 -0.411180 -0.684700 0.657690
A 1.725580 -0.090710 2.169880 -1.874790 0.845650 -4.399780
A -3.146150 1.571030 -1.067230 -0.597950 -0.405770 0.099910
A 2.690160 -1.729870 -1.973400 -0.801660 1.625260 0.667540
A 2.325930 2.970760 -1.323290 2.332620 -0.954570 5.124610
A -3.730770 3.339830 0.720330 3.682680 0.954780 -1.313580
A -0.680160 -1.164030 3.707050 -1.696250 -0.073060 0.580100
A 0.294850 -1.220760 3.780810 -1.202820 -2.325650 1.011510
A 0.404910 -4.031240 -2.581920 0.333200 1.580750 -0.354420
A -0.135920 0.766220 -4.171370 -1.632030 -2.638410 1.501330
A -3.037720 0.668570 -3.905500 0.473850 -1.312840 -4.069700
A -1.250590 1.813770 3.108540 2.691440 -2.012580 -2.041030
A -3.889290 3.571190 -1.129740 0.620800 -2.583420 -2.228240
A 2.077540 -3.013230 -4.104700 -0.084480 -2.341520 1.006140