500
step:10 columns:species,position,velocity dt:0.002 cell:8.44533753582401,8.44533753582401,8.44533753582401 
A -3.964420 3.966960 -3.963430 -0.046080 -0.254050 0.209190
A -3.186250 -3.168650 -3.966480 -0.407920 0.189340 0.029030
A 3.966670 -3.176080 -3.172120 0.116270 -0.093860 -0.127880
A -3.173230 3.958820 -3.177910 0.026240 -0.251990 -0.211840
A -3.962410 3.966480 -2.383840 0.103370 -0.256770 -0.353100
A -3.186510 -3.167330 -2.378470 -0.377630 0.159960 0.359950
A 3.963340 -3.170140 -1.590810 -0.253270 0.067560 -0.383530
A -3.171580 -3.955480 -1.598110 0.028210 0.568290 -0.486360
A -3.962580 3.963370 -0.793270 0.332080 -0.067990 0.063840
A -3.173350 -3.168780 -0.792370 -0.069080 0.231570 0.067320
A 3.964190 -3.170900 0.004280 -0.271350 0.001940 0.446230
A -3.169520 -3.965820 -0.002730 0.210730 0.241810 -0.166360
A 3.966740 3.963710 0.797770 -0.011050 -0.020820 0.016510
A -3.171970 -3.160210 0.801910 -0.105630 0.505230 0.249960
A 3.962850 -3.178050 1.597720 -0.085350 0.011590 0.465520
A -3.166180 3.964660 1.584040 0.205880 -0.006060 -0.116560
A 3.954970 3.968100 2.381010 -0.594690 -0.149610 -0.012200
A -3.167540 -3.173670 2.379600 0.196540 0.122140 -0.145610
A 3.966950 -3.173400 3.187070 0.050110 0.277900 0.445350
A -3.186230 -3.958180 3.165140 -0.310770 0.307110 -0.296730
A 3.967800 -2.374650 -3.968270 0.055820 0.063330 -0.084050
A -3.178770 -1.584900 3.957260 0.047970 0.025520 -0.429920
A -3.962390 -1.589690 -3.173080 0.306310 -0.211950 0.211360
A -3.181560 -2.374240 -3.182550 -0.102150 0.106870 -0.392790
A 3.955750 -2.381440 -2.395340 -0.697670 -0.133360 -0.595680
A -3.173880 -1.595580 -2.379130 0.227990 -0.332630 0.352600
A 3.962870 -1.593510 -1.587880 -0.122960 -0.210460 0.037120
A -3.182590 -2.366360 -1.586760 -0.334650 0.518900 0.032510
A 3.965260 -2.370530 -0.789160 0.000820 0.430240 0.376590
A -3.198700 -1.588960 -0.796540 -0.908730 -0.269410 0.087310
A 3.963710 -1.588250 -0.015620 -0.027720 -0.115740 -0.921390
A -3.171940 -2.377510 0.009760 -0.028930 0.429480 0.532870
A -3.963270 -2.380810 0.806100 0.429130 0.069280 0.428390
A -3.173770 -1.580150 0.796690 0.079310 0.358540 0.326690
A 3.965890 -1.591790 1.578060 0.016190 0.027820 -0.399490
A -3.172470 -2.378290 1.592680 0.323020 -0.061410 0.066080
A 3.964160 -2.377990 2.389660 -0.177550 0.094970 0.214590
A -3.163530 -1.589410 2.391910 0.398230 0.087410 0.364100
A 3.960720 -1.585080 3.180080 -0.158200 0.022240 0.441370
A -3.174910 -2.375360 3.173970 -0.199010 0.518340 0.054560
A 3.967190 -0.795940 -3.957970 0.128650 0.102880 0.325260
A -3.177050 -0.002890 -3.958210 -0.271920 -0.167560 0.348280
A 3.964150 -0.003660 -3.160830 -0.115830 -0.224220 0.769150
A -3.185530 -0.795830 -3.168890 -0.373570 0.018740 0.306710
A 3.964570 -0.798980 -2.383450 -0.231510 -0.296370 -0.068930
A -3.183790 -0.007380 -2.379230 -0.455920 -0.243270 0.315470
A -3.959020 0.001410 -1.582840 0.491010 0.055250 0.227230
A -3.177450 -0.782240 -1.584230 -0.045250 0.303650 0.123370
A -3.966800 -0.801400 -0.790810 -0.147990 -0.116210 -0.002010
A -3.173880 -0.003450 -0.787200 0.274160 -0.050120 0.468730
A 3.964410 -0.000440 -0.003200 0.009410 -0.052460 0.059380
A -3.174110 -0.798430 -0.002410 -0.024940 -0.066400 0.112740
A -3.964220 -0.789080 0.790220 0.157880 0.145990 -0.228460
A -3.172030 0.008330 0.790280 -0.044060 0.239210 -0.342240
A 3.968070 0.008580 1.585720 -0.010780 0.196360 0.121730
A -3.172040 -0.791050 1.610400 0.084920 -0.030060 1.094810
A -3.965550 -0.796050 2.389340 -0.060580 0.107930 0.195490
A -3.174150 0.003540 2.376210 0.236820 0.113810 -0.382810
A 3.961190 -0.005610 3.179540 -0.219300 -0.305970 0.487510
A -3.170800 -0.802560 3.174760 0.321660 -0.480050 -0.003740
A 3.957880 0.799390 -3.961040 -0.364110 0.200990 0.123300
A -3.177560 1.573240 -3.966550 -0.120850 -0.641620 0.139300
A -3.956920 1.581830 -3.164030 0.317580 -0.329340 0.550770
A -3.168190 0.794850 -3.177180 0.150320 -0.075510 -0.223930
A -3.965180 0.784250 -2.367920 0.346580 -0.397870 0.594640
A -3.174960 1.586610 -2.390440 0.040460 -0.143680 -0.273970
A 3.961770 1.590800 -1.575690 -0.226340 0.218890 0.312690
A -3.166400 0.798840 -1.581660 0.403250 0.281430 0.157940
A -3.960520 0.801270 -0.802230 0.636160 0.393380 -0.451650
A -3.173760 1.591170 -0.785850 0.014060 0.331720 0.241420
A -3.959170 1.602370 -0.006940 0.680660 0.476140 -0.188040
A -3.168540 0.787890 -0.009060 0.155500 -0.082700 -0.247410
A 3.965270 0.784420 0.787460 -0.258450 -0.245870 -0.225230
A -3.177510 1.575390 0.796010 -0.241100 -0.780400 0.027240
A -3.966570 1.590380 1.587170 0.227060 0.134140 0.194880
A -3.171290 0.788480 1.590970 0.226040 -0.326810 -0.016390
A -3.956000 0.800580 2.389860 0.452780 0.187280 0.185070
A -3.188830 1.583590 2.381840 -0.635250 0.061200 -0.132910
A -3.963040 1.588310 3.170260 0.273470 0.198460 -0.173440
A -3.180060 0.795770 3.169370 -0.095010 0.157650 -0.148040
A -3.959240 2.386420 3.966570 0.349200 0.061110 0.008490
A -3.174510 3.176740 3.968460 -0.107340 -0.138680 0.201020
A -3.967050 3.171170 -3.166450 0.084880 -0.239140 0.512240
A -3.174770 2.368930 -3.170900 0.150790 -0.725100 0.017300
A 3.966810 2.386130 -2.376650 -0.009840 0.217460 0.264610
A -3.178650 3.176480 -2.376250 -0.204800 0.084740 0.186100
A 3.964900 3.179090 -1.588010 -0.052380 0.059530 0.214160
A -3.174020 2.383450 -1.592020 0.086400 0.250900 -0.435980
A 3.959430 2.368570 -0.804020 -0.214380 -0.425850 -0.601250
A -3.175180 3.177090 -0.783960 -0.012810 -0.053930 0.703810
A 3.958670 3.173390 0.010440 -0.541060 0.149300 0.338860
A -3.176440 2.394150 -0.005320 0.118220 0.410270 -0.020700
A -3.968270 2.378210 0.788010 0.117010 -0.236710 -0.076370
A -3.181370 3.191410 0.784160 -0.335880 0.601510 -0.229510
A 3.968130 3.161820 1.597050 -0.063520 -0.383400 0.344600
A -3.173600 2.376040 1.584230 0.027920 -0.103930 0.031130
A -3.958090 2.373000 2.384580 0.367720 -0.295290 0.167040
A -3.166750 3.168910 2.374140 0.154950 -0.213500 -0.249130
A -3.966740 3.171840 3.169030 -0.010120 -0.218830 -0.066680
A -3.179910 2.386820 3.175850 -0.077160 0.120600 -0.163810
A -2.380190 -3.966730 3.963620 -0.115950 -0.062390 -0.249390
A -1.588330 -3.178670 3.966070 -0.177160 -0.088260 -0.231190
A -2.382040 -3.171660 -3.173300 0.073430 0.224430 -0.082060
A -1.577180 -3.963420 -3.184620 0.311660 0.326590 -0.413090
A -2.382690 -3.965620 -2.392720 -0.256960 -0.107990 -0.464510
A -1.590620 -3.182090 -2.374400 0.067900 -0.122620 0.121380
A -2.374710 -3.172890 -1.589650 0.439440 0.133660 0.089460
A -1.585270 -3.966250 -1.590860 0.094430 0.019220 -0.366640
A -2.382830 3.966350 -0.794730 0.059800 -0.260460 -0.067860
A -1.591190 -3.173870 -0.796180 0.043610 -0.090550 0.018500
A -2.375140 -3.167550 0.008660 0.150930 0.129360 0.214720
A -1.583530 -3.967670 0.010260 0.308240 0.192520 0.478450
A -2.379790 -3.956590 0.794460 0.233760 0.525180 -0.074100
A -1.587390 -3.169790 0.793420 -0.081940 0.231320 0.086320
A -2.385040 -3.184690 1.586160 -0.384450 -0.380550 0.092020
A -1.587620 -3.962010 1.593600 -0.263960 0.410190 0.318050
A -2.393070 -3.950100 2.375500 -0.376740 0.705380 -0.060990
A -1.594590 -3.174620 2.381830 -0.108240 0.054600 0.001880
A -2.387590 -3.171340 3.181400 -0.143260 -0.013670 0.129470
A -1.585660 -3.960580 3.190160 0.196300 0.342340 0.602170
A -2.379130 -2.386670 -3.968330 0.061430 -0.344940 -0.061450
A -1.598560 -1.595630 3.958930 -0.344590 -0.318360 -0.226020
A -2.379680 -1.582890 -3.173790 0.062350 0.206120 -0.101330
A -1.593960 -2.379240 -3.182470 -0.212520 -0.048600 -0.414420
A -2.373950 -2.396040 -2.382320 0.191870 -0.659290 0.029090
A -1.597020 -1.588470 -2.382390 -0.264010 0.151970 0.147150
A -2.384220 -1.583240 -1.585240 -0.282370 0.271150 -0.110380
A -1.592370 -2.372430 -1.596500 -0.116870 0.436440 -0.191200
A -2.384020 -2.381680 -0.798520 -0.232800 0.165440 -0.130490
A -1.576110 -1.582090 -0.796640 0.409600 0.038790 0.036650
A -2.395190 -1.584060 -0.004370 -0.461270 0.092280 -0.386680
A -1.590480 -2.372690 -0.000040 -0.096220 0.216450 -0.238790
A -2.383560 -2.380800 0.780630 -0.128890 0.018500 -0.378010
A -1.599290 -1.575850 0.799910 -0.377040 0.372170 0.448780
A -2.388730 -1.585240 1.598680 -0.485090 -0.016150 0.328460
A -1.598040 -2.384750 1.585000 -0.700590 -0.200160 -0.070480
A -2.373570 -2.383540 2.397150 0.163290 0.126420 0.749700
A -1.582230 -1.598550 2.386850 0.449770 -0.465560 0.312770
A -2.385880 -1.590510 3.185780 -0.346390 -0.352680 0.375300
A -1.586700 -2.375500 3.173870 0.172490 0.412640 0.030450
A -2.369210 -0.789230 -3.961730 0.567270 -0.021810 0.325470
A -1.579850 -0.002970 -3.967090 0.283890 -0.104930 0.035250
A -2.377780 0.009440 -3.190490 -0.016020 0.689260 -0.717820
A -1.596660 -0.799200 -3.176980 -0.434470 -0.293140 -0.215390
A -2.382260 -0.785980 -2.375540 0.096200 0.264200 0.114650
A -1.589020 0.001140 -2.389750 -0.241670 -0.155240 -0.187800
A -2.383940 -0.007700 -1.578320 -0.031830 -0.504750 0.530910
A -1.593960 -0.783650 -1.591510 -0.089020 0.448200 -0.248500
A -2.367270 -0.801430 -0.801330 0.601230 -0.172490 -0.184130
A -1.587550 -0.002690 -0.799920 0.176650 0.123370 -0.222310
A -2.376890 0.006950 -0.006290 0.405940 0.347190 -0.114000
A -1.588720 -0.791620 0.004180 -0.093620 0.074200 0.376790
A -2.380460 -0.782540 0.791680 0.261760 0.306310 -0.315580
A -1.589260 0.021670 0.792050 0.086910 0.845830 -0.082600
A -2.382980 -0.004950 1.604160 0.114180 -0.044180 0.727250
A -1.586170 -0.784180 1.589230 0.065590 0.459800 -0.054530
A -2.369950 -0.795840 2.386060 0.401860 -0.179280 0.125810
A -1.578350 0.010290 2.399550 0.339860 0.643960 0.716370
A -2.377100 -0.009080 3.181750 0.316560 -0.213880 0.154420
A -1.579430 -0.808400 3.174150 0.162080 -0.540360 0.101310
A -2.373460 0.792170 3.968270 0.363030 -0.258600 0.175630
A -1.594640 1.594000 3.957270 -0.239160 0.296110 -0.313350
A -2.370670 1.577550 -3.180960 0.460380 -0.249150 -0.069040
A -1.586770 0.789490 -3.172370 0.138730 -0.082370 0.295740
A -2.387000 0.804470 -2.377100 -0.151160 0.449050 0.442230
A -1.591680 1.595200 -2.380000 -0.263580 0.205540 -0.060970
A -2.384600 1.587370 -1.587010 -0.075910 -0.036900 0.166400
A -1.597110 0.792820 -1.585620 -0.316340 -0.283060 -0.049870
A -2.380340 0.798390 -0.798220 -0.124430 0.355710 -0.149070
A -1.583740 1.599650 -0.792020 0.022190 0.351310 0.067950
A -2.369960 1.594670 -0.000210 0.506300 0.108440 -0.246070
A -1.591840 0.797260 -0.007550 -0.287890 -0.007540 -0.521360
A -2.392090 0.794930 0.784590 -0.425310 0.073300 -0.248310
A -1.586900 1.585740 0.788950 0.245110 -0.167310 -0.390510
A -2.375450 1.583660 1.584900 0.285890 -0.037620 -0.086850
A -1.590550 0.797780 1.584930 -0.200760 0.089400 -0.092000
A -2.388380 0.802750 2.381000 -0.112200 0.191060 -0.087270
A -1.599890 1.598860 2.388300 -0.380230 0.315060 0.289060
A -2.379990 1.580750 3.179000 -0.055930 -0.343150 0.006470
A -1.583750 0.781790 3.177320 0.194330 -0.533010 -0.012020
A -2.378500 2.377970 -3.965110 -0.012360 0.034620 -0.050350
A -1.582860 3.172860 3.964900 -0.027710 -0.154240 -0.149430
A -2.395170 3.174970 -3.168410 -0.767420 0.253640 0.458360
A -1.584710 2.392240 -3.173620 0.167480 0.338750 0.114280
A -2.364370 2.381230 -2.378550 0.707210 0.097300 -0.085200
A -1.583890 3.166310 -2.382660 0.339800 -0.246250 -0.003350
A -2.376460 3.173880 -1.575760 0.435630 0.067670 0.627000
A -1.587970 2.383680 -1.595880 -0.220610 0.173670 -0.272970
A -2.384730 2.377830 -0.792280 -0.313970 -0.120990 0.294810
A -1.589970 3.162260 -0.804360 -0.363810 -0.363280 -0.475660
A -2.391500 3.177010 -0.006070 -0.301860 0.225290 -0.177840
A -1.594100 2.378100 -0.001580 -0.415820 0.034370 0.035630
A -2.383670 2.373780 0.790220 0.058120 -0.173290 -0.073720
A -1.583870 3.174690 0.794050 0.280000 0.048970 0.089340
A -2.405810 3.182740 1.585240 -1.132030 0.261830 -0.175110
A -1.582120 2.381390 1.578280 0.104930 -0.066320 -0.577240
A -2.382160 2.383470 2.383740 -0.243800 0.230920 0.124770
A -1.580880 3.173110 2.383590 0.098940 -0.049530 0.372040
A -2.379160 3.172750 3.172680 0.015110 -0.075630 -0.289900
A -1.601420 2.386980 3.178480 -0.559700 0.136590 0.252230
A -0.782100 3.967120 -3.963190 0.656280 -0.067840 0.150520
A 0.004570 -3.183090 -3.967450 0.002220 -0.171140 0.027800
A -0.798340 -3.171730 -3.174210 0.026570 -0.077690 -0.071770
A -0.000340 3.965900 -3.176070 0.175410 -0.121320 -0.028880
A -0.797610 -3.968140 -2.377790 -0.186470 -0.137780 0.009130
A -0.004080 -3.180800 -2.385070 -0.182500 -0.261980 -0.139030
A -0.786910 -3.177830 -1.588250 0.283910 -0.033600 -0.076540
A 0.004390 3.959860 -1.588860 0.065200 -0.258030 -0.151940
A -0.796300 -3.959770 -0.797170 0.080090 0.362200 -0.211910
A -0.005230 -3.168160 -0.804720 -0.169000 0.241000 -0.595910
A -0.798270 -3.188700 -0.003160 -0.116290 -0.500670 -0.136080
A -0.000820 -3.967210 -0.005760 0.118680 -0.077630 -0.514780
A -0.783760 3.961920 0.794450 0.293590 -0.364500 -0.182010
A -0.008600 -3.180370 0.787800 -0.242440 -0.205670 -0.170040
A -0.794510 -3.184010 1.585170 0.128490 -0.494000 -0.210620
A 0.004990 -3.965650 1.587690 0.138810 0.020210 -0.144370
A -0.796270 3.966940 2.388030 -0.340610 0.152010 0.135130
A -0.005990 -3.182960 2.382190 -0.309920 -0.443120 0.214470
A -0.797440 -3.174320 3.172740 0.034880 0.194350 0.123290
A -0.002140 -3.966530 3.178360 -0.112070 0.266220 0.374010
A -0.786680 -2.390040 3.964140 0.264340 -0.404100 0.034580
A -0.000470 -1.581030 3.965510 -0.038580 0.162620 -0.006810
A -0.793630 -1.584690 -3.172200 0.104090 -0.082900 0.319670
A 0.008170 -2.383320 -3.175060 0.606390 -0.235700 -0.083620
A -0.796550 -2.380210 -2.386500 -0.131110 0.023930 -0.204520
A 0.003220 -1.583870 -2.391480 0.394030 0.324890 -0.256510
A -0.798030 -1.595040 -1.587210 -0.246510 -0.576070 -0.020450
A -0.003620 -2.388230 -1.591510 0.043030 -0.175300 -0.244300
A -0.781210 -2.376180 -0.796000 0.371760 0.058520 0.067810
A 0.010550 -1.593690 -0.781020 0.313570 -0.263190 0.589920
A -0.785120 -1.586450 -0.007900 0.346280 -0.186390 -0.360720
A 0.005000 -2.383660 0.005080 0.062930 -0.078190 0.134770
A -0.783720 -2.390420 0.795650 0.325020 -0.513960 0.237850
A 0.004490 -1.592750 0.800020 0.136480 -0.256890 0.196420
A -0.794910 -1.582650 1.587560 0.070890 -0.021510 -0.002760
A -0.003340 -2.377990 1.575570 -0.336240 0.222420 -0.339300
A -0.807110 -2.389570 2.377660 -0.514250 -0.278630 0.071270
A -0.006200 -1.592220 2.371770 -0.137440 -0.029340 -0.521110
A -0.789070 -1.594800 3.182640 0.259090 -0.470680 0.141070
A 0.005370 -2.378460 3.161600 0.424960 0.295210 -0.418540
A -0.794120 -0.807090 -3.963430 0.013580 -0.731930 0.142630
A 0.005050 0.000470 3.963040 0.276450 -0.017940 -0.039940
A -0.788440 -0.000200 -3.178390 0.304770 0.005450 0.053030
A -0.001820 -0.790800 -3.179320 -0.098250 0.050040 -0.050190
A -0.787990 -0.787630 -2.392090 0.132930 0.371900 -0.740500
A 0.004410 0.011850 -2.388690 0.269790 0.343560 -0.404700
A -0.803360 0.004500 -1.580380 -0.275230 0.347510 0.138420
A -0.002110 -0.794590 -1.583400 -0.357870 -0.175720 0.267420
A -0.795930 -0.785420 -0.792140 0.085610 0.149070 0.191940
A 0.000400 0.000600 -0.793750 0.257300 0.156180 0.070880
A -0.803180 -0.011840 0.001420 -0.367480 -0.479410 0.013230
A 0.006390 -0.788470 0.001280 0.224750 0.016700 0.141890
A -0.783920 -0.789000 0.782170 0.253020 0.045180 -0.350600
A -0.002300 0.006140 0.790210 0.095110 0.113170 -0.315860
A -0.779260 0.011880 1.577760 0.483790 0.341870 -0.385290
A -0.008120 -0.791970 1.582500 -0.145050 0.140040 -0.360650
A -0.795730 -0.789600 2.373810 -0.087400 0.230770 -0.324920
A 0.014810 0.006720 2.390810 0.511950 0.111030 0.328330
A -0.790620 0.006220 3.172460 0.027910 0.493210 0.115410
A -0.001830 -0.795770 3.168680 0.155260 -0.079110 -0.176000
A -0.793850 0.798390 3.963780 0.196650 0.205080 -0.177960
A 0.000670 1.579420 -3.952640 -0.177200 -0.461010 0.554920
A -0.798870 1.591100 -3.182620 -0.124200 0.025050 -0.135370
A 0.005080 0.798510 -3.171520 0.040170 -0.012440 0.298200
A -0.804600 0.794150 -2.382090 -0.328680 -0.058580 -0.212750
A -0.004620 1.577670 -2.369430 -0.464710 -0.263190 0.329660
A -0.788890 1.577630 -1.584610 0.186110 -0.237170 -0.081800
A 0.004930 0.786400 -1.596820 0.372860 -0.403720 -0.207500
A -0.801090 0.794930 -0.796990 -0.243800 -0.065940 -0.371850
A 0.007750 1.582590 -0.786500 0.285720 0.005210 0.568400
A -0.793620 1.591830 0.013120 0.199380 0.414700 0.460980
A -0.014870 0.797820 0.000170 -0.575360 0.382350 -0.070990
A -0.792730 0.788000 0.788730 -0.051540 -0.149850 -0.066330
A -0.001560 1.594970 0.793680 -0.013780 0.144240 0.042310
A -0.789710 1.584590 1.580790 0.375590 -0.116430 -0.329110
A -0.004200 0.793750 1.604120 -0.034530 0.088410 0.618710
A -0.788680 0.788100 2.381010 0.224420 -0.011400 0.158620
A 0.001630 1.592470 2.389470 0.131860 0.005400 0.467860
A -0.795000 1.592160 3.173450 0.114270 -0.009470 -0.173810
A -0.005360 0.795450 3.161400 -0.104940 -0.048770 -0.390940
A -0.805010 2.386480 3.965830 -0.403190 0.027410 -0.210670
A 0.006850 3.183690 -3.966020 0.265400 0.192960 0.095210
A -0.803750 3.190130 -3.178010 -0.273670 0.679350 0.028970
A 0.010800 2.378560 -3.182140 0.455940 -0.168420 -0.206620
A -0.790840 2.383880 -2.380060 0.175980 0.083200 -0.135700
A -0.004060 3.178260 -2.379030 -0.220590 0.296430 0.236080
A -0.789030 3.176340 -1.601720 0.034050 0.189780 -0.461200
A 0.008300 2.384030 -1.595920 0.290620 -0.064720 -0.175880
A -0.789000 2.378220 -0.805970 0.058400 0.037150 -0.578030
A -0.001010 3.169980 -0.791610 0.093790 -0.102680 0.059290
A -0.794460 3.174380 0.001810 -0.070060 0.197620 0.271130
A -0.002410 2.384910 0.008290 -0.121420 0.042170 0.286100
A -0.784640 2.380090 0.788770 0.191620 -0.068200 -0.292260
A 0.001770 3.178690 0.789250 -0.142980 -0.035490 -0.039240
A -0.790640 3.170040 1.590700 0.405600 -0.095830 -0.085630
A 0.002710 2.385870 1.585200 0.157290 0.237240 -0.345720
A -0.802910 2.384370 2.376490 -0.464370 -0.097990 -0.240380
A -0.007020 3.169480 2.376300 -0.342750 -0.500250 -0.078940
A -0.795020 3.172170 3.176760 -0.038490 0.054620 -0.077880
A -0.010440 2.382400 3.179450 -0.323180 -0.107640 0.368140
A 0.794200 3.958900 3.964040 0.001570 -0.486380 0.031530
A 1.579720 -3.168560 3.957250 -0.207170 0.198180 -0.518930
A 0.794250 -3.178310 -3.174310 0.179500 -0.031770 -0.033460
A 1.592840 3.958950 -3.181160 0.316170 -0.240860 -0.208740
A 0.797240 -3.959420 -2.379450 0.088380 0.246270 -0.041710
A 1.583790 -3.174730 -2.380860 -0.188740 -0.124020 -0.086740
A 0.794820 -3.159640 -1.581360 0.015110 0.630760 0.394410
A 1.587360 -3.966920 -1.586370 0.089480 0.147920 -0.196420
A 0.787370 3.962140 -0.803850 -0.064170 -0.062510 -0.273440
A 1.583550 -3.169250 -0.792640 -0.422500 0.085370 0.133960
A 0.786450 -3.176350 0.007290 -0.363670 -0.232520 0.118780
A 1.579820 3.959920 -0.004490 -0.225060 -0.620830 -0.311510
A 0.796590 3.964980 0.791370 0.149590 0.029820 -0.105970
A 1.580680 -3.171570 0.794110 -0.293160 0.047270 -0.128800
A 0.786490 -3.176290 1.593460 -0.295560 -0.226790 0.194840
A 1.580510 3.963080 1.598780 -0.196600 -0.077600 0.318180
A 0.781350 3.960450 2.373790 -0.444700 -0.360880 -0.146660
A 1.588280 -3.172040 2.380790 -0.161060 0.231460 -0.013530
A 0.794810 -3.179030 3.173870 -0.065460 -0.356630 -0.110330
A 1.582820 -3.964500 3.170610 -0.373370 0.329860 0.033530
A 0.792000 -2.398810 -3.964810 -0.325170 -0.656270 0.071280
A 1.565910 -1.583260 3.964110 -0.889490 0.091640 -0.097630
A 0.794720 -1.587140 -3.181570 -0.152480 -0.170580 -0.169710
A 1.585690 -2.383500 -3.170740 -0.098080 -0.070370 0.057730
A 0.798980 -2.379110 -2.377090 0.244500 0.272310 0.134290
A 1.583990 -1.599440 -2.374140 -0.120160 -0.343930 0.149000
A 0.792230 -1.593180 -1.592470 0.038940 -0.144140 -0.198390
A 1.590000 -2.368460 -1.581590 0.256320 0.513110 0.117140
A 0.792620 -2.386100 -0.800300 0.011020 -0.195230 -0.094870
A 1.592530 -1.577260 -0.791000 0.118780 0.479800 0.053290
A 0.794230 -1.576570 0.005550 -0.102020 0.454280 0.060050
A 1.590770 -2.387270 0.003730 -0.076870 -0.053830 -0.035640
A 0.788870 -2.395700 0.778760 -0.123870 -0.577870 -0.567040
A 1.586570 -1.581920 0.791230 0.072200 0.410800 0.000910
A 0.801990 -1.583650 1.585130 0.303890 -0.052760 0.127740
A 1.595160 -2.390980 1.592410 0.195480 -0.313840 0.266920
A 0.788960 -2.376870 2.390360 -0.030300 0.303010 0.334810
A 1.601030 -1.588350 2.385560 0.485420 0.053110 0.193430
A 0.789760 -1.597520 3.166790 -0.068280 -0.411470 -0.225820
A 1.594380 -2.392020 3.172530 0.226230 -0.351920 -0.257010
A 0.792150 -0.793500 -3.962600 -0.314480 -0.067310 0.201100
A 1.596530 0.001000 3.964410 0.249600 0.151950 -0.011150
A 0.792180 -0.002430 -3.176710 0.149340 -0.149390 0.095100
A 1.594030 -0.786360 -3.175400 0.175890 0.489370 -0.061110
A 0.791590 -0.790640 -2.379740 -0.225300 -0.088210 0.046600
A 1.586910 0.006880 -2.384280 -0.053530 0.100340 0.025320
A 0.792050 -0.006020 -1.584200 -0.113010 -0.062250 0.288180
A 1.599600 -0.793160 -1.579290 0.665450 -0.016840 0.275020
A 0.790810 -0.801450 -0.788150 -0.242660 -0.171410 0.038400
A 1.588910 0.000680 -0.782450 0.310930 -0.051680 0.354090
A 0.800680 0.002430 0.007930 0.152130 0.006970 0.574290
A 1.582980 -0.800340 0.003180 -0.174060 -0.093500 0.094710
A 0.800690 -0.794280 0.786210 0.330960 -0.139580 -0.310530
A 1.585830 0.014390 0.789540 -0.052540 0.504590 0.034750
A 0.796640 0.000850 1.585290 -0.051430 0.257860 0.114430
A 1.590430 -0.799240 1.590070 0.231190 -0.137160 0.098970
A 0.797380 -0.797620 2.374960 -0.006410 -0.029300 -0.243990
A 1.577790 -0.001040 2.387720 -0.292690 0.162860 0.433790
A 0.802360 -0.004460 3.180000 0.203520 -0.082330 0.241660
A 1.587880 -0.774260 3.190090 0.159580 0.770950 0.643680
A 0.791830 0.797120 -3.963510 -0.157490 0.253320 0.409830
A 1.578040 1.580340 3.965050 -0.534530 -0.537660 -0.005760
A 0.784370 1.587320 -3.161230 -0.539690 -0.085680 0.451970
A 1.584540 0.793730 -3.181150 0.024820 0.097180 -0.277630
A 0.796050 0.806320 -2.385100 0.234160 0.655840 -0.265220
A 1.590090 1.582500 -2.388660 0.338920 -0.124540 -0.279300
A 0.796650 1.591470 -1.584920 -0.009610 0.210670 0.096840
A 1.580460 0.785210 -1.591660 -0.454720 -0.255460 -0.434450
A 0.792280 0.798060 -0.790990 0.045000 0.192140 0.101720
A 1.579840 1.583790 -0.776760 -0.349380 -0.201200 0.640760
A 0.792250 1.586440 0.005160 -0.296660 -0.214040 0.089030
A 1.589000 0.783060 -0.004320 0.221940 -0.349110 -0.192270
A 0.788400 0.798810 0.779200 -0.399810 0.271490 -0.665310
A 1.587760 1.585820 0.797830 -0.212120 0.134620 -0.023210
A 0.795480 1.592440 1.594990 -0.040700 0.283440 0.316570
A 1.590830 0.796160 1.586330 0.072430 -0.112460 0.144500
A 0.795890 0.788660 2.389450 0.367700 -0.189360 0.317490
A 1.576780 1.593060 2.387950 -0.297030 0.178490 0.091720
A 0.800900 1.586520 3.168550 0.209070 -0.190560 -0.295600
A 1.589700 0.799720 3.180660 -0.110100 0.296500 0.332540
A 0.801620 2.381100 3.963230 0.421510 0.145150 -0.131220
A 1.588030 3.168130 3.962240 -0.199040 -0.131570 -0.242910
A 0.784490 3.174740 -3.170770 -0.533820 -0.196160 0.051180
A 1.596970 2.386290 -3.172140 0.220120 0.435810 0.304290
A 0.799700 2.372820 -2.380200 0.383960 -0.363960 -0.109880
A 1.596470 3.171890 -2.373700 0.450980 0.090440 0.497190
A 0.786590 3.168950 -1.598880 -0.190320 -0.275060 -0.325170
A 1.580600 2.378750 -1.590740 -0.390690 -0.369170 0.028770
A 0.794990 2.377870 -0.795890 0.093610 -0.272880 -0.147420
A 1.594550 3.161910 -0.788860 0.155250 -0.445880 0.073720
A 0.802430 3.184340 -0.005020 0.280220 0.265080 -0.334040
A 1.593310 2.389080 0.005880 0.310670 0.217040 0.081840
A 0.799340 2.372880 0.795440 0.220980 -0.303460 0.027760
A 1.584920 3.176760 0.795270 0.063140 0.025190 -0.034150
A 0.800850 3.169740 1.589190 0.136160 -0.266420 0.155100
A 1.577780 2.376110 1.597120 -0.230510 -0.033410 0.450680
A 0.786390 2.379880 2.379870 -0.381050 0.199930 0.104690
A 1.590350 3.176730 2.388780 0.080580 -0.064130 0.285020
A 0.797900 3.186800 3.175630 0.125870 0.550730 0.010670
A 1.581230 2.376220 3.162180 -0.444420 -0.047820 -0.453160
A 2.376920 3.961600 3.964000 -0.333050 -0.271110 -0.111450
A 3.172780 -3.179420 3.968430 -0.184800 -0.147670 0.051300
A 2.380900 -3.168820 -3.193750 0.114980 0.137090 -0.700170
A 3.166380 3.964550 -3.166510 -0.532410 -0.140150 0.412910
A 2.375720 3.965120 -2.386550 -0.362680 0.000490 -0.151570
A 3.174260 -3.163660 -2.397340 0.015450 0.366950 -0.693910
A 2.379380 -3.156900 -1.591270 -0.075610 0.667640 -0.033690
A 3.170610 3.967010 -1.577800 -0.364240 -0.178940 0.234140
A 2.379050 3.957970 -0.802750 0.121360 -0.461840 -0.495760
A 3.178710 -3.178140 -0.788330 -0.060850 0.033210 0.298910
A 2.392290 -3.172920 -0.005450 0.452910 -0.074070 -0.147840
A 3.176860 3.966470 -0.013240 -0.090710 -0.222300 -0.468600
A 2.367800 3.967520 0.785770 -0.415710 -0.152760 -0.260350
A 3.177590 -3.169590 0.789100 -0.099670 0.392990 -0.362850
A 2.376890 -3.186700 1.590630 0.013580 -0.663420 -0.010000
A 3.174530 3.967800 1.594490 0.039050 -0.238790 0.156640
A 2.393060 3.959180 2.381230 0.522460 -0.319650 -0.210300
A 3.174740 -3.167980 2.386600 -0.024050 0.242780 0.157230
A 2.378060 -3.173730 3.169830 -0.143580 -0.182930 -0.042220
A 3.185380 -3.962190 3.174530 0.568030 0.084920 0.149690
A 2.376350 -2.394260 -3.968060 -0.162680 -0.643910 -0.008440
A 3.173260 -1.593160 -3.967970 0.119430 -0.299330 -0.027510
A 2.372880 -1.593110 -3.174170 -0.359660 -0.064050 0.086710
A 3.184460 -2.372270 -3.173830 0.263230 0.421960 -0.209330
A 2.391520 -2.388540 -2.380800 0.413270 -0.226700 -0.217120
A 3.176380 -1.590450 -2.392430 -0.005730 0.040240 -0.306240
A 2.376520 -1.575320 -1.589880 -0.190800 0.781970 -0.022380
A 3.166240 -2.385480 -1.578160 -0.274890 0.012830 0.235120
A 2.374510 -2.383150 -0.796190 -0.093650 0.084710 0.004990
A 3.183030 -1.589590 -0.802800 0.556440 -0.028480 -0.261610
A 2.389730 -1.579440 0.000420 0.293360 0.134310 0.097970
A 3.180790 -2.379270 -0.003820 0.365090 0.128750 -0.058590
A 2.380540 -2.379920 0.795060 0.180420 -0.114550 -0.029240
A 3.168460 -1.589390 0.796480 -0.141080 0.030800 -0.049370
A 2.381250 -1.581450 1.595720 0.058660 0.282140 0.184950
A 3.184070 -2.374950 1.589320 0.334260 0.302180 -0.032020
A 2.389080 -2.391530 2.375060 0.311130 -0.424470 -0.385190
A 3.176080 -1.591020 2.384140 -0.160640 0.052580 -0.009760
A 2.388380 -1.585170 3.177640 0.382780 0.160380 0.312420
A 3.174020 -2.390410 3.169730 0.109240 -0.535660 -0.119400
A 2.368880 -0.791430 -3.967570 -0.598870 0.073700 0.107560
A 3.170410 0.000950 -3.959070 -0.064190 -0.026280 0.381230
A 2.383320 -0.020990 -3.172360 0.073860 -0.845020 0.212590
A 3.168570 -0.797610 -3.189630 -0.168710 -0.037630 -0.664130
A 2.372950 -0.804060 -2.393070 -0.327560 -0.317240 -0.551550
A 3.158900 0.000730 -2.391410 -0.712720 0.195230 -0.372520
A 2.377900 -0.002730 -1.581240 -0.151850 -0.226590 0.054920
A 3.166950 -0.795330 -1.588520 -0.163060 -0.078170 0.155460
A 2.378600 -0.795130 -0.779270 -0.173030 0.085200 0.643030
A 3.179040 0.001850 -0.792210 0.392540 -0.018950 -0.076260
A 2.391940 -0.006750 -0.006710 0.433170 -0.548670 -0.340350
A 3.180180 -0.801580 -0.000970 0.285840 -0.133150 -0.236640
A 2.386560 -0.785250 0.792550 0.253320 0.520810 0.165120
A 3.168770 0.000580 0.794630 -0.325520 0.005190 0.182450
A 2.387680 0.007640 1.582980 0.436220 0.128610 -0.134110
A 3.172730 -0.786440 1.599190 -0.152860 0.393210 0.346200
A 2.372850 -0.800380 2.387680 -0.244790 -0.180450 0.198120
A 3.176600 0.010960 2.391030 0.333490 0.532260 0.284850
A 2.392130 0.007460 3.155800 0.498780 0.316700 -0.682090
A 3.174810 -0.804510 3.174180 -0.200520 -0.369640 -0.158270
A 2.391810 0.791610 3.968430 0.715570 0.015210 0.198510
A 3.180860 1.582500 3.967070 0.175520 -0.326790 -0.293300
A 2.378630 1.584140 -3.172190 0.076510 -0.090550 -0.010880
A 3.174670 0.804800 -3.171810 -0.174960 0.316300 0.300010
A 2.383640 0.797850 -2.388920 0.343810 0.318210 -0.597470
A 3.182970 1.573320 -2.389980 0.177070 -0.715530 -0.497840
A 2.381260 1.586950 -1.594640 0.006770 0.213040 -0.190390
A 3.176770 0.789420 -1.588310 -0.029800 -0.443150 -0.270110
A 2.379540 0.791260 -0.801870 -0.156480 -0.075240 -0.569440
A 3.178330 1.590600 -0.800920 0.015410 -0.005230 -0.126950
A 2.382860 1.571140 0.005050 -0.048150 -0.613590 0.227470
A 3.166200 0.795530 0.005300 -0.277630 0.027730 0.330370
A 2.381410 0.796850 0.790330 0.185700 0.400460 0.061500
A 3.171340 1.595470 0.794340 -0.114660 0.627380 -0.119480
A 2.379530 1.586680 1.582560 -0.067540 0.140570 -0.006430
A 3.185840 0.798210 1.600190 0.784810 0.431680 0.596660
A 2.360900 0.792060 2.390130 -0.851510 0.102680 0.301680
A 3.172940 1.580690 2.366350 0.033120 -0.118490 -0.533170
A 2.374760 1.585720 3.172280 -0.060290 -0.330920 -0.239680
A 3.179120 0.789680 3.158890 0.031160 0.017170 -0.691780
A 2.379090 2.375360 -3.964840 -0.235450 -0.090360 0.276760
A 3.181960 3.172060 3.966160 0.427970 -0.275740 0.062700
A 2.384340 3.168780 -3.175050 0.052810 -0.502650 0.138560
A 3.188950 2.390830 -3.182100 0.488630 0.278320 -0.113200
A 2.394290 2.379820 -2.388040 0.703220 0.017920 -0.224440
A 3.180860 3.179450 -2.374110 0.075580 0.156720 0.189340
A 2.372190 3.175190 -1.582130 -0.643260 -0.085010 0.158570
A 3.186920 2.378230 -1.581930 0.338840 -0.226180 0.284300
A 2.381260 2.364800 -0.791250 0.108500 -0.876190 -0.058410
A 3.183830 3.176540 -0.793770 0.593600 0.100370 -0.002360
A 2.372740 3.172050 0.006500 -0.463020 -0.015280 0.155210
A 3.169000 2.378750 -0.009700 -0.114610 -0.134740 -0.232670
A 2.381150 2.387660 0.798740 0.055370 0.497320 0.056350
A 3.173570 3.172700 0.783820 0.118790 -0.029130 -0.363030
A 2.379250 3.175570 1.581110 -0.160260 0.022740 -0.289790
A 3.168770 2.393820 1.584520 -0.434850 0.585360 -0.214500
A 2.386410 2.390960 2.387230 0.082880 0.539690 0.471010
A 3.171710 3.170670 2.388600 -0.164720 -0.160190 0.316120
A 2.379220 3.174420 3.171900 -0.204350 -0.015700 -0.031570
A 3.155890 2.371760 3.177420 -0.740400 -0.627500 -0.006820
500
step:110 columns:species,position,velocity dt:0.002 cell:8.44533753582401,8.44533753582401,8.44533753582401 
A 3.959110 3.931100 -3.940370 0.007680 -0.008230 -0.151180
A -3.181550 -3.185680 3.963620 0.140710 -0.270660 -0.150530
A 3.956930 -3.182380 -3.201030 -0.270750 0.228730 0.068400
A -3.190730 -3.942540 -3.176870 -0.027400 0.143140 0.367900