1200
step:1 columns:name,pos cell:10.0005999,10.0005999,10.0005999 dt:1
A 0.858753 -4.594743 3.468113
A 0.310684 -4.919744 -4.597178
A 0.143273 3.286445 -0.771037
A 3.193223 0.780315 -3.012341
A -2.658112 3.073148 -1.372067
A -3.763942 3.583122 -4.949188
A -3.917550 3.700343 -3.923491
A -0.274082 0.921673 2.068907
A -2.124952 0.626450 1.528826
A -2.311295 -0.868938 -1.240823
A 3.862515 0.534778 -1.005586
A -0.160288 -0.071641 -1.682346
A 1.270067 -3.561999 0.438045
A 0.187254 0.043779 -3.712769
A -3.512174 3.068411 1.938876
A 0.503889 3.839452 0.946738
A -1.753531 -3.471537 3.433683
A -3.876861 -1.356395 1.425168
A -0.045206 -3.742374 -4.711291
A -2.124696 -1.775992 2.662615
A -4.706769 -2.002107 2.613543
A 1.861879 -0.515235 -2.807642
A -3.273406 -3.521154 -2.071006
A 1.098356 -1.470669 4.657128
A 3.081103 2.604578 2.338568
A -4.721736 3.361290 2.798818
A 4.880048 2.473763 2.014154
A 1.404454 1.917031 -4.214706
A -2.034728 3.580816 -0.549282
A -4.236697 3.298457 -0.603931
A -4.123403 4.834661 2.834431
A 2.824637 4.018331 3.841127
A 1.005493 -0.800626 -3.910988
A 0.882970 1.903231 -2.081253
A 4.812550 -2.800827 -3.165568
A -4.780910 -3.828321 -2.916143
A -0.662759 -3.249274 -1.936866
A 4.096653 -3.694555 2.011113
A 3.601008 -0.360569 -3.130476
A 0.417450 3.040013 0.307214
A -4.136783 -1.521990 3.582731
A 2.432972 -4.947232 3.551180
A -4.220464 1.387280 4.330723
A 0.212867 4.782554 -2.011471
A -0.773803 -4.809176 2.639013
A 0.444297 -1.499731 -1.686889
A 2.074520 3.966397 -3.761823
A -0.012243 0.994951 0.178405
A 4.475179 4.782419 4.581354
A 0.115534 1.080845 -3.859808
A -2.020657 -1.401936 4.864515
A -3.945927 -0.379442 3.258619
A 3.291697 -0.600773 2.138638
A 1.048765 -4.748063 -1.317012
A 2.743513 -4.276408 1.760593
A 2.915251 -1.453883 2.762149
A 2.005476 1.347457 0.511702
A -4.179717 -4.086607 4.147000
A -2.646228 -2.101009 -0.095413
A -2.962987 -0.513391 -1.874006
A 0.649688 3.961309 -0.198314
A -3.509800 -3.215738 2.320321
A -1.492014 -0.538730 4.576797
A -1.153623 -1.517613 4.260557
A -3.043766 3.463917 3.963209
A -3.051674 3.809325 -0.749421
A -2.951959 -3.872444 -4.722339
A -2.678901 0.695981 4.478157
A 4.416628 -4.707814 2.284979
A -4.961583 -0.253612 -1.155481
A -1.068545 0.419743 -1.947684
A -2.361788 -2.686961 3.810837
A -0.569291 2.721545 -0.080788
A -0.575504 -4.425503 0.423206
A -3.540236 3.016474 3.074530
A 1.645013 3.881133 2.524668
A 0.695066 -3.507400 -3.413669
A -1.352364 1.893328 3.397509
A 1.399699 -1.201992 1.750469
A -4.244692 -3.264472 0.683361
A -2.440311 -2.975353 -1.606764
A 1.027608 -2.619294 -2.757177
A 2.612794 -0.150172 -3.391907
A 3.630782 1.083938 -1.934193
A -4.241013 0.672994 -2.046235
A 1.388035 -3.368978 4.224497
A 4.256135 -1.827916 2.913879
A -1.446383 -0.332994 0.389801
A 2.264791 0.775898 -1.057846
A -1.648108 2.878786 -1.358639
A -0.477238 3.758519 0.238649
A 3.274739 -2.242286 3.425742
A 2.385626 -2.582078 2.802599
A -0.520006 -0.318771 1.832731
A -3.674087 -0.343798 -3.647218
A 4.413520 -1.765360 1.805788
A -3.957730 -4.265848 -4.785364
A 1.507307 1.310156 -0.409824
A 4.123960 0.458167 -2.840967
A -3.603714 3.388084 -2.698279
A -3.749598 -2.226608 2.066329
A -2.030875 4.087670 3.514776
A 4.819974 -0.157435 -3.292101
A -0.350037 -1.058658 -2.236335
A 4.583363 -4.895073 -3.071632
A 1.195953 2.882272 2.693619
A 0.465726 -0.826839 4.108675
A 2.751889 3.834217 -2.981561
A 4.842880 -1.350592 -4.510467
A 2.137525 0.768633 -3.156874
A -2.704720 -4.267413 2.465821
A 0.523169 -2.728631 -1.767390
A -3.571686 -0.340910 4.682702
A -2.864486 3.549270 1.178889
A 2.197975 -1.069520 -3.650046
A 1.311749 -2.147938 3.789418
A -4.504343 3.870609 0.448482
A -4.338356 2.771341 0.359425
A 2.183547 3.567592 4.537652
A 4.062549 -2.346364 -0.295068
A -2.471439 1.787214 3.331587
A 4.317607 4.079327 0.492155
A -3.069082 -0.251591 2.703813
A 1.610466 -4.464935 4.132199
A -4.806412 -4.854830 3.746013
A 2.103279 -3.632062 2.532017
A -4.953664 -1.490438 1.003655
A -1.398066 0.679425 -0.018283
A -3.798425 -3.271137 -4.325370
A 0.610151 4.322101 -1.121152
A 3.475944 1.450028 -0.730819
A 4.178493 -1.547507 3.937448
A -0.975952 2.723463 -4.652254
A -0.982263 -1.104751 -4.663749
A 2.827275 -1.071587 -2.651455
A 2.993060 -1.758807 -0.900058
A -4.631708 -2.292616 1.562253
A 3.795892 1.901016 4.670117
A -1.321884 1.944541 -1.694407
A 4.728497 0.327374 1.697822
A -3.878966 4.612436 4.968030
A 1.192863 3.058433 1.576940
A -3.081101 -2.993302 0.212855
A -3.118819 0.314795 1.194936
A -1.539837 -4.715618 3.277306
A -2.219723 -1.696766 1.530664
A -1.449058 1.051515 -1.045933
A -2.538608 2.314140 -3.368339
A -4.905912 4.319685 2.091634
A -1.198144 0.348585 1.204074
A -4.795220 -1.812316 -3.490721
A -1.276827 -1.623154 3.190752
A -2.275668 4.174107 0.430925
A -3.190860 1.372105 -3.860437
A -2.405454 0.761170 -4.436426
A -1.676848 -2.443409 -2.912918
A -0.961772 2.503509 1.070361
A 2.733234 1.719545 -1.450038
A -1.076583 -1.352720 -3.427304
A 2.392589 -1.844703 1.977141
A -4.213774 -2.037845 -2.604009
A -4.126096 3.129884 -1.777505
A 2.439148 3.889538 0.787636
A 2.009299 -0.090543 4.790765
A -3.913782 -2.502768 -4.962984
A 2.237736 4.814328 2.410019
A 3.512178 3.707702 2.133460
A -2.529272 -4.182075 1.313376
A -1.901296 3.725989 1.324328
A -1.546880 1.149171 -3.846848
A 1.168551 2.957416 -0.501491
A 1.987860 -3.673940 1.333909
A -2.001070 -2.969524 -4.519471
A -4.988533 2.858138 -1.128736
A -4.582605 -4.744102 2.002856
A 2.101886 -2.589221 -2.518129
A -4.083114 0.566171 2.634349
A -3.835415 4.007095 1.250410
A -0.453555 3.644578 -4.222946
A 3.894029 4.373774 -3.242029
A -2.498170 0.943343 -1.015684
A -3.319968 3.793099 -1.788571
A 2.380158 4.693844 -0.976336
A -3.604037 -4.713547 1.435181
A 4.550497 1.513669 -2.316545
A -3.072500 2.464210 3.810408
A 2.247824 -1.542459 4.543185
A -4.863320 -3.351415 -3.986756
A 2.864391 0.158444 4.248791
A 2.693318 -2.464043 4.968361
A 3.180498 -3.452652 2.304361
A -0.464660 3.402445 3.443068
A -3.396542 0.142317 0.108962
A -0.845838 -3.478714 -2.931862
A 3.982362 -3.038209 -3.838509
A -2.865414 2.215905 -4.402731
A -0.777992 -4.652627 -0.588486
A -0.863580 0.173583 -0.908276
A -2.245450 -0.825528 2.139553
A -4.978574 0.439773 0.657080
A 2.677045 -2.761446 1.600033
A -2.261369 1.665044 -4.954087
A -4.845852 4.568268 -3.722066
A 2.473315 2.975757 0.384433
A -4.738285 -2.465387 -0.939995
A 3.285095 -2.879616 4.302506
A 0.738714 -1.689191 -4.398325
A 1.635772 -0.077958 3.177835
A 4.407847 -1.086642 -3.500970
A -1.273161 4.869410 -3.493165
A -0.940038 -4.665222 1.544921
A 3.432327 1.694859 1.928213
A -3.844222 4.801643 3.939424
A 1.518826 -4.541128 0.638832
A 3.941887 -3.411391 -1.682988
A 1.389417 4.691093 -0.454149
A -1.596912 2.897514 -3.070904
A -3.286914 -4.458429 3.381114
A 1.625224 -3.548402 -2.939519
A -1.986457 2.661723 -4.763761
A 4.626804 3.620732 -3.560148
A -3.512172 3.695955 0.305471
A 3.243732 -3.263246 -0.012824
A -2.985518 2.229465 2.399873
A -2.667570 3.327149 -3.127120
A 2.735274 3.623984 -1.088207
A 3.365683 4.804091 2.010836
A 4.637190 -4.913021 0.393514
A -2.696188 -4.916402 -2.082866
A -3.852696 2.050223 -4.255317
A -4.358232 -0.909839 -0.498020
A 2.415022 -2.566715 -1.345459
A 1.329498 4.948378 -4.973878
A -4.199898 -1.532043 0.349518
A 1.155028 0.946941 -2.778356
A 4.103998 -2.978386 0.518673
A 0.556373 4.851309 4.354626
A 1.815877 4.716476 -1.885771
A 1.445315 -4.428976 1.937793
A 0.878303 -3.411925 -4.453620
A 1.509966 -2.157755 1.381979
A 2.330847 -3.659362 0.161497
A 4.359493 -4.036678 -3.784562
A -3.822303 4.809628 -2.035315
A -4.130918 -1.128376 2.415439
A -2.690154 -2.413967 0.932787
A -0.416606 -2.079962 -2.048265
A 2.899625 4.337229 -1.986633
A -0.458909 -1.351238 -1.208155
A 2.028283 2.636415 4.128202
A 3.083128 1.203606 4.163146
A -0.882882 -4.109105 3.777095
A 0.059043 2.695930 -4.694533
A 1.231530 2.177199 3.749699
A -0.483952 3.781394 2.351913
A -1.319276 -0.548655 2.494797
A -2.393131 -0.616008 0.064493
A -3.404547 -2.211916 4.140619
A -3.766104 1.512928 -1.635012
A -0.319955 -1.780921 -0.237350
A 3.952974 -0.892296 0.067234
A -1.504387 0.841185 3.202080
A -4.560631 -0.810403 -3.783803
A 4.542779 3.568781 1.880970
A 4.846922 -3.165316 -2.100758
A 1.353094 0.345050 -0.756253
A -3.319014 -4.855052 -3.071327
A -4.211980 -1.747363 -4.324002
A 1.124698 -2.450397 0.478644
A -1.521159 -2.172456 -3.946518
A 3.413025 -4.287697 -2.245059
A 0.072901 0.120419 4.322825
A -4.675971 4.013254 -4.613568
A -0.906631 -2.079279 -4.899755
A 1.053545 -2.514214 4.806474
A 1.764865 2.773579 -4.887846
A -2.336370 2.988635 3.270851
A 3.110959 -3.575784 1.052948
A -2.594521 -4.899379 0.400388
A 0.112538 4.685834 0.369581
A -3.070671 0.667842 2.226822
A -0.394102 4.643853 -3.972336
A -1.408996 -2.609621 2.917129
A -4.635407 4.214030 4.343154
A -1.077463 4.257604 -2.365249
A 4.805496 3.140959 0.827199
A -0.153183 1.884425 2.838599
A -3.403466 -0.836049 -0.014469
A 1.436991 -4.307730 -2.147168
A -4.917531 -3.336910 3.652559
A -0.120773 -3.131366 -0.982176
A 1.675629 -4.501096 2.900340
A 3.816662 0.453471 -3.856525
A 0.957328 -4.365304 -4.051194
A -2.091717 4.315592 -4.323817
A 4.011948 4.748188 -2.303911
A -3.414743 1.353142 2.909370
A 2.590719 0.508962 0.552040
A 3.341251 -2.801310 -0.901510
A -0.945440 -3.063673 -4.672350
A 3.112962 1.361751 0.350950
A 4.256485 -3.374906 -0.555290
A 2.144355 -2.831584 0.737416
A 3.388618 -4.917187 -1.475756
A -4.752867 -0.197599 2.641210
A 0.401508 2.234035 -3.863083
A 2.369328 -1.629554 -1.927301
A 2.501979 0.602133 3.380616
A -4.829551 1.820301 -1.507210
A -1.717670 -4.090877 -3.163108
A -3.535549 -3.535062 -0.495131
A 4.928171 -0.592139 0.441112
A 1.129712 -0.003793 -3.255162
A 3.044822 4.275026 -3.867062
A 2.495965 -2.551432 -0.271007
A -0.405976 4.396574 -4.988397
A -3.148511 1.852328 -0.874904
A 2.825306 0.839085 2.390326
A -3.319463 2.574185 0.702702
A 1.286918 -2.967699 2.066417
A -1.132078 4.862993 4.220048
A -0.978447 0.359215 4.031961
A 0.049402 -2.648358 -4.718564
A -3.649556 1.579564 0.870505
A 3.165011 -0.890447 0.906816
A 3.728229 -4.491387 1.235407
A 1.306459 -0.235632 2.188869
A -0.368612 2.139536 1.835644
A 1.797312 -3.042225 -4.732791
A -3.345093 2.537914 -1.943671
A 0.556938 -1.526571 1.091012
A 4.212153 -4.948475 3.387963
A 0.303532 3.599532 4.883870
A 0.454639 -2.777048 1.515631
A -1.741840 -4.348645 -0.753725
A -4.815748 -4.917437 -4.657728
A -0.042079 -1.778171 4.677124
A 0.981980 2.971635 4.485805
A -0.694799 4.838825 -1.543606
A 2.304043 4.744007 -4.708369
A -2.336328 2.504709 -0.468115
A -4.340097 1.175248 0.090808
A 1.758602 0.829252 2.400226
A -0.518181 1.721007 3.929697
A -0.179914 -0.922271 -3.328694
A 4.616290 1.423374 1.947254
A 0.137116 1.417394 -2.798043
A 3.864022 -4.111183 0.269793
A 2.472255 1.629920 -0.463253
A -1.478389 3.634747 2.728455
A 0.877010 4.945653 1.238972
A -2.434509 0.289276 -2.572968
A 0.127386 -0.154501 -2.715899
A 0.659792 -0.536866 -1.204861
A -3.291448 2.865205 -0.300202
A 3.846829 -0.939258 3.095180
A -1.219346 -4.754654 -2.470889
A 3.882259 0.128515 2.549290
A 4.793976 0.921183 -3.603201
A -4.945124 -2.554255 0.517395
A -2.344456 -1.898853 -2.199431
A 3.008376 1.699285 -2.606576
A 4.573088 -0.301447 -4.319576
A 3.000133 -0.365785 3.198218
A 2.924823 -0.743102 4.825362
A 3.777207 3.997352 -1.577579
A 1.702433 -4.079990 -4.920824
A 3.369389 -0.059159 0.210573
A 3.959728 1.960779 -1.566530
A 4.957906 3.297742 3.810073
A 4.992049 -0.140556 -2.281730
A -4.907978 -2.262599 3.689703
A -3.982654 4.332077 -0.416775
A 1.770848 -3.334726 -0.858872
A -3.956779 3.057680 4.137619
A 4.202925 1.497204 -4.295599
A 2.281585 1.861224 2.174017
A 3.324187 -3.914417 -0.904723
A -4.798173 -4.167462 2.935264
A -3.799657 2.050456 -0.072312
A 0.453792 -4.267425 0.544270
A 4.847089 -1.672106 -0.067315
A 2.454280 2.169833 -4.263530
A 4.898475 2.117221 1.079135
A 1.920197 2.317977 1.262886
A -1.670835 1.274916 0.819065
A 1.412297 1.727793 4.719614
A -1.954403 -1.449288 0.574976
A -3.804636 -0.161465 -2.405293
A 4.094861 2.735757 3.980206
A -2.387602 -4.033004 -1.646915
A -0.915328 1.337307 -2.376788
A 4.907340 -1.910917 -1.983223
A -0.929086 -0.360056 -2.758287
A -3.494136 -0.969998 -4.485032
A 3.118922 1.420554 -3.904916
A 4.499102 3.682675 4.716590
A 0.472097 4.133375 -4.129083
A -2.309413 0.452236 0.401859
A -0.628783 2.721325 -3.613486
A 0.949697 -3.742941 2.707168
A 3.716523 3.469442 -0.720130
A -4.466302 2.876076 -4.659087
A 3.139209 -0.011553 1.338287
A -3.933559 -1.113346 -2.994515
A 1.285645 -4.277478 -0.249150
A -0.497328 0.001737 0.091436
A 4.621848 -0.051673 4.479609
A 2.249384 1.721103 3.724528
A -3.235061 -4.596350 4.537735
A 4.105026 -3.621461 4.050266
A 0.650820 4.461079 -3.048744
A -1.086452 -3.841833 2.788356
A -0.248055 -1.383270 3.636086
A -4.048888 -1.855340 -1.407177
A 1.394523 4.512827 3.399170
A -4.954238 -1.177856 -2.676869
A 3.337331 4.942233 -4.822442
A 3.022369 4.115348 -0.153058
A -4.337033 0.398161 4.673865
A -1.950116 4.401266 4.644493
A -1.577381 3.361592 -3.994781
A 0.420054 0.886426 -1.972347
A -3.177680 1.439416 3.994624
A 2.021163 0.318535 1.457265
A -3.743634 -4.256377 2.437074
A -3.466831 0.314330 -4.539136
A 2.304160 -0.948004 -1.176072
A -2.127931 0.154419 -1.572194
A -0.733622 -2.398047 -3.263360
A 2.311302 -0.147203 -0.406274
A -4.538828 -3.296344 2.448100
A -2.999012 -0.615804 -2.935675
A 4.783607 3.906781 -1.222461
A -4.506829 3.352359 1.669353
A 4.946583 -4.048559 -1.310187
A 0.133314 2.993968 1.423270
A 4.745728 0.632880 -4.660194
A 1.140684 -0.370357 1.157671
A 0.182369 2.944489 2.488139
A -2.307511 4.337654 2.121155
A 2.643633 -3.179521 -3.248768
A 3.130583 -0.833580 -0.555646
A 3.991120 -1.466619 -0.955688
A 0.548304 -1.905630 2.091306
A 3.484057 -3.857738 4.816444
A 2.907455 -0.058715 -2.380197
A -2.916072 -1.158888 0.954681
A -1.867749 2.273705 2.606920
A 4.649792 -2.359173 -4.194089
A 1.137118 0.105462 4.184957
A -2.041616 3.378155 4.365374
A -0.674541 1.658863 -3.347109
A -2.170119 -4.551667 4.779173
A 3.977814 2.432711 0.568218
A 0.965604 -0.023965 -2.126088
A -1.479268 -2.470490 -1.888127
A 3.124688 4.946181 -2.872664
A -0.903728 3.409571 -0.686318
A -2.146483 0.187314 2.621331
A 4.140663 0.058714 0.869462
A 3.228430 -4.199832 3.909535
A -2.721662 -2.583919 2.006997
A -1.435786 -3.161206 -3.683113
A 3.083542 -2.115044 -2.780917
A 1.087737 1.907642 -3.153527
A -0.092939 -3.832825 -0.232222
A -0.863083 -2.362148 -0.961684
A 1.451967 2.865930 -1.581416
A 0.374209 -2.584796 4.018914
A -4.207010 2.580788 -2.692824
A 2.285319 -2.832566 3.888943
A -2.400028 4.135543 -1.490483
A -2.669714 -4.044476 -2.752299
A 4.974188 2.431120 3.136546
A 4.192470 -4.492418 -4.733754
A -0.255834 -3.873481 1.262636
A 2.507867 2.736999 -2.865824
A -2.917912 -0.278548 3.768598
A -1.098482 3.791828 4.126979
A -2.740012 -0.413500 -4.055250
A 3.851215 -0.029621 -2.002011
A -3.250998 -2.646564 -0.920917
A -3.331780 -4.036711 0.520927
A 1.759843 -0.966727 -4.711339
A 4.458115 2.655264 -4.924350
A -0.435214 -3.125987 3.267365
A -2.208632 1.901859 -1.285530
A 3.365954 1.087313 -4.786312
A -1.745687 -4.996365 -1.611089
A -3.514052 -0.923499 -1.129582
A -2.630070 -2.837214 -2.586690
A -1.337659 4.094401 -1.345602
A -0.183806 -3.392124 4.348605
A -4.972400 -1.511532 4.451428
A 4.801425 -3.729544 0.395495
A -2.481016 -3.358818 -0.600022
A -1.722015 -0.008872 -4.487312
A 1.396292 -2.136005 -1.671491
A 0.307323 1.431440 1.412929
A 4.452042 -0.142851 3.415176
A -1.277928 3.788272 -4.901857
A -1.199371 -4.169716 -1.654901
A 3.131655 -3.043520 -2.312911
A -2.888914 4.546617 1.250298
A -0.936339 -0.378874 -3.871159
A -1.250829 -3.690209 -0.085731
A -2.088020 2.387866 4.222165
A 2.249473 2.669379 -0.634917
A -3.872629 4.801807 -3.989799
A 4.773082 3.263009 -0.166383
A 1.523845 -1.309733 0.536222
A -3.035830 -2.308117 2.954304
A -1.960318 1.092260 -2.089404
A -2.920864 4.306304 -3.623842
A -3.274500 4.864651 2.308879
A -2.399294 -3.680248 -3.862674
A 1.263201 0.841624 -3.823784
A -1.367865 4.214181 -0.137230
A -1.583526 -4.799323 0.160622
A -4.885472 4.382644 -2.115833
A 0.294988 -3.165481 0.584016
A 3.382646 4.116272 1.173692
A -4.870955 -4.387585 -0.344288
A 0.321340 -1.828210 -2.801338
A 2.265295 -4.270424 -0.645465
A 3.771708 -1.625681 -4.390853
A -0.885503 4.369349 3.247371
A -1.774912 -3.443768 -2.326566
A 1.547956 0.371378 0.387629
A 3.986595 4.498460 -0.636088
A 1.321576 2.818393 -2.618382
A -4.671728 1.167010 1.209370
A -0.228329 -2.145352 0.741478
A 0.576991 1.261348 -0.961938
A 2.346215 4.807524 0.164340
A 0.704809 -4.128262 4.660861
A 2.264364 -0.674685 3.917794
A -0.073429 -4.105733 2.987480
A -4.669986 -3.407737 -0.491250
A 1.341165 -1.088626 3.618928
A -4.419862 0.474804 -3.057792
A 0.798758 -3.069174 -0.433477
A -1.092447 -0.680779 3.621342
A -2.211202 1.248763 2.466177
A 4.516524 -2.754814 2.316791
A 4.076030 0.848664 4.368316
A 2.612028 -3.587596 -1.552217
A -3.245166 -3.199304 -3.390967
A -4.763242 2.319535 4.256890
A 1.448833 3.962013 -4.751395
A 0.728510 1.854081 -0.101918
A 2.203940 -1.725372 3.530932
A 2.278464 -2.138708 -3.469159
A 3.433621 -1.809295 4.619051
A -4.198868 -2.614025 -3.495755
A 1.690632 1.821150 -1.301946
A 0.630933 3.660885 3.110215
A 4.085260 -1.897590 0.682070
A -2.828526 3.473028 -4.173601
A 2.666114 3.558360 2.820762
A -4.133578 -3.212394 -1.374836
A -0.344452 -4.525614 4.637225
A -3.151417 -1.310389 2.157801
A 3.378811 2.961207 3.257510
A -3.327546 1.386449 -4.926323
A -2.672042 0.698607 3.354191
A 1.475828 1.829557 2.800116
A -1.152219 1.536608 2.377955
A 2.575329 -4.608314 4.572568
A -0.306048 -4.190931 -2.281939
A -2.204678 -3.863199 0.311962
A -2.248645 -3.494796 4.570375
A -3.989454 -0.432126 0.772706
A 2.783362 -4.291121 -4.403203
A 0.348123 2.486122 -2.831594
A 1.260756 -1.405298 -0.969552
A -0.394691 -1.305058 1.505927
A -1.499661 2.955983 1.904825
A -2.925737 -2.782279 4.902555
A -3.469340 -1.370530 -2.097556
A -3.159282 0.504774 -1.838739
A -0.854263 2.677563 2.774674
A 4.487077 0.058346 -0.259278
A 2.994627 -0.021725 -1.305881
A 0.615058 2.327986 -1.141460
A -1.457519 1.046166 -4.892231
A 2.734265 -1.464623 -4.456870
A 1.970691 -0.988451 2.765125
A -1.174226 0.494563 2.248634
A -2.484413 -2.031716 -4.540757
A 4.235544 3.701414 -2.458754
A -0.017776 -4.270888 -3.680570
A 3.131082 4.580814 3.039033
A -2.530751 2.599141 1.450280
A 3.187076 -2.356176 -3.920271
A 4.946395 2.061242 -3.226711
A -2.451935 4.873960 3.044501
A -4.239868 0.282765 1.608003
A -0.775129 2.355950 -2.616619
A -4.255873 -3.846895 1.624130
A -1.229356 -0.610605 -1.661111
A -1.987064 -3.389340 2.383707
A 0.870298 -3.769838 1.461332
A -2.433808 -2.531645 -3.643545
A -1.724337 1.942104 1.621500
A -0.406339 2.782480 4.298820
A 4.751420 -4.278018 1.231091
A -2.466125 3.313296 2.226385
A -0.404877 4.339145 -0.622125
A -1.527338 -1.585783 -1.416731
A 3.317388 -1.020666 -1.700242
A -2.887088 0.394301 -3.550011
A -4.417429 1.626949 -2.538346
A -2.158399 1.483643 -0.236636
A 4.744184 1.596187 4.826810
A 3.962246 0.832882 0.050177
A 4.035470 2.276596 2.740630
A -1.294283 1.949927 4.682041
A -0.537536 -2.776575 -0.046951
A -0.832961 -1.165748 0.477331
A -1.873194 -0.019200 -0.573639
A 2.719583 -4.448082 0.663565
A -0.703108 -0.001639 -4.928338
A 4.871315 -4.205060 4.544015
A 1.508838 -3.014774 3.146223
A 2.446854 0.899022 -2.055285
A -2.846308 4.163535 -2.583428
A 4.947006 1.376229 3.699774
A 0.529036 1.497644 -4.694148
A 0.633765 0.027397 0.213021
A 2.228055 -1.291555 -0.212007
A 0.160790 3.292643 -3.481062
A -0.998234 -0.772553 -0.467788
A -0.451230 -0.790129 4.517183
A 0.858658 2.164650 1.055046
A -0.282501 -1.747848 -4.092607
A 3.324690 -1.718980 1.504863
A 1.298517 -1.029839 -2.021523
A 1.981347 -3.907196 -3.904060
A -3.826544 1.462897 1.931980
A -1.974898 3.539537 -2.213557
A 3.904232 -1.363643 -2.587063
A -3.754050 -4.603178 -0.282230
A 0.071939 4.576160 2.635432
A -0.003483 3.921001 -2.499171
A -2.023552 -4.628745 -4.111449
A 4.618584 0.657224 -1.758549
A -4.783772 2.044859 -0.460514
A 2.988877 1.787258 3.036223
A 1.563530 4.006837 1.461184
A 3.012232 -4.373333 2.850061
A 4.254919 4.431877 -4.289541
A 0.414605 -2.454573 -3.657831
A -4.192410 -4.047469 -1.990189
A 2.162444 -0.468934 0.578951
A -1.144735 -1.895051 1.148056
A 3.152199 -2.446955 0.721374
A -1.916935 0.018598 3.827246
A -1.338787 -2.195356 0.198026
A -4.509528 -4.364418 -3.795817
A -3.995814 -0.012063 -1.349559
A -4.453535 -4.857150 -1.192879
A 2.473361 -3.516078 4.655665
A -0.135856 1.890214 -1.826991
A 3.880442 2.649861 1.618255
A -1.690060 1.904128 -2.908435
A -1.047891 -3.417524 1.829866
A -0.422088 1.042131 4.853078
A -4.058993 3.877439 3.442887
A 3.309555 -1.649343 0.051253
A 4.302363 2.616849 -3.915009
A 4.243818 3.276973 2.886396
A -1.252073 -1.608004 2.191656
A 4.429286 -3.458395 -4.754997
A -3.982851 2.402451 -1.026117
A -0.372113 0.985224 -1.327442
A -2.826053 -3.474294 3.149676
A 2.613371 1.169945 1.414860
A -3.357274 -2.326132 -4.052472
A -1.259662 -4.059392 4.987756
A -1.422746 3.274103 0.351357
A -1.904313 -4.990201 1.247588
A 0.862493 -0.972554 -2.954985
A -4.016854 -2.492348 3.220075
A 1.443304 3.273980 0.558622
A -1.232712 -3.257329 4.247850
A 4.219167 2.390334 -0.496784
A 4.725235 1.442940 0.346814
A 2.367689 -1.663218 0.954953
A 2.380425 -4.966596 -3.710613
A 2.112980 3.607124 -2.171681
A 0.497425 1.498301 3.510023
A -2.126767 -3.175376 1.296178
A 1.005567 1.152659 0.632068
A 4.503685 1.350764 -0.773309
A 1.627501 2.298942 0.254879
A 3.574903 0.526602 3.486787
A 4.093575 2.977916 -1.552312
A -0.312910 1.880183 -0.708088
A -4.106710 -3.005517 4.181857
A -3.668595 0.525845 3.737660
A -2.917406 2.856020 4.865733
A -2.439608 1.210113 -3.096994
A -4.710739 0.414651 3.655725
A -4.481364 0.192096 -4.089445
A 4.548910 4.982010 -1.447579
A 3.275523 2.605638 -1.067441
A -3.398665 -2.445610 -1.961891
A 3.155555 -4.862086 -0.476927
A 3.099446 -3.362699 3.322494
A -0.384749 -2.209746 2.858979
A -3.478535 2.763894 -3.569815
A -1.680539 2.283878 0.321044
A -4.329067 -4.356149 0.702408
A 3.555098 4.813017 0.429634
A 2.189787 4.887970 1.279302
A 4.281126 -2.470821 -1.362823
A -0.864290 3.648578 -3.123398
A 2.199724 1.751695 -3.332253
A 1.600134 3.940596 -1.279565
A -2.935047 -0.063846 -0.903658
A -2.912102 1.626881 -2.232427
A -0.460700 0.885481 3.149265
A 3.866216 3.420431 -4.373983
A -1.019684 -2.888811 0.961768
A 4.096888 4.364871 2.646204
A -4.365770 -4.766505 -2.805202
A -0.524718 -0.183875 2.944043
A 4.971366 -1.038149 3.217581
A -1.954759 -2.408840 -0.795823
A -1.939340 -1.377393 -0.449693
A -2.179772 -1.637692 3.781154
A -3.349169 -4.176727 -3.866821
A 3.513409 3.383538 0.330576
A 4.256221 -2.606404 4.258995
A 4.076634 -2.483523 -2.421109
A -3.396387 -0.501758 1.639774
A -0.808420 0.664101 -4.198419
A 0.800121 -3.702907 -1.277247
A -1.768015 -2.450041 4.669731
A -4.452994 -0.532012 4.103461
A 0.636552 3.872408 2.050390
A 3.537167 -2.409202 2.379457
A 2.080995 3.001307 2.084996
A 3.287137 -1.338649 -3.554206
A 4.067176 -3.429728 -2.824367
A -2.097534 -1.477630 -3.112782
A -2.027279 -0.762232 -2.283150
A 2.883081 3.145502 1.401364
A -4.859231 -0.629872 1.536464
A 4.765451 0.685627 2.747766
A 1.400513 1.459369 1.655239
A 2.452018 1.791549 4.802806
A -0.871952 1.624736 0.222680
A -3.612498 0.760179 -0.747395
A -3.474034 1.909230 -3.017977
A 0.660664 -3.598614 -2.394724
A 2.140300 1.144556 -4.368479
A 3.616677 3.261803 -3.196200
A -2.776842 3.985815 4.948613
A -2.041408 -0.392505 -3.339196
A -3.320406 -3.271558 1.298249
A 4.097173 -2.904831 3.267838
A 2.255269 2.645678 3.076634
A -1.180864 4.425132 1.944288
A 3.201749 2.361677 -0.060274
A 3.756326 -2.628681 -4.803923
A 3.168679 -1.309703 3.783267
A 3.938926 1.490299 1.011903
A 0.189945 0.286416 -0.716732
A -2.991555 -1.277881 4.509256
A 4.046590 3.989795 3.737508
A -4.653903 4.683704 1.108654
A -2.768425 1.568680 1.647353
A -1.534763 0.624233 -2.888296
A 0.607642 -2.752880 2.835668
A -3.706703 2.257041 4.716404
A -4.186489 2.379250 1.363817
A 4.425714 -0.802819 2.238297
A -0.533869 1.861233 -4.356526
A 4.999019 4.517292 -0.407511
A -4.749675 3.550735 -2.704680
A 4.425910 -0.894157 -1.811395
A -2.907326 4.979386 -4.523213
A -2.143058 -0.773442 3.182552
A -4.065990 -2.509414 -0.116987
A 0.408852 2.127859 4.451941
A 3.926987 1.693711 3.638325
A -3.995149 4.260988 -3.043853
A 0.348264 0.107247 2.349606
A 2.991788 0.641921 -0.405989
A 0.899086 0.564948 1.570563
A 2.055628 3.706538 -0.275602
A 4.890498 -3.221785 1.376842
A 2.485854 -4.560988 -1.772341
A -3.489008 -1.746736 -0.450308
A -0.636814 -2.372288 3.984661
A 0.388218 0.405433 3.399339
A 1.042970 3.921165 -2.132066
A -3.157492 -3.565285 4.153955
A 4.975860 4.214526 3.258895
A 3.461613 2.275000 -4.444854
A 0.693770 2.140673 2.058559
A 0.884633 3.152061 -4.286236
A -0.014792 -2.845659 -2.736195
A -4.461585 0.037327 -0.141330
A 0.779718 -1.648454 -0.051266
A 0.180703 -0.724059 -0.232238
A 3.773350 0.716406 1.678139
A 2.494356 2.651092 -1.741316
A 3.496859 -0.540744 -4.212529
A -1.754331 -4.647842 2.273937
A -1.357587 -0.831834 1.377932
A 2.009453 0.927721 4.297080
A -0.507426 0.580301 -3.169445
A -4.917353 1.978713 -4.250236
A 3.342484 -2.120234 -1.759291
A -4.621130 1.506777 2.663816
A -2.238181 4.962868 -3.040890
A 0.315793 3.059488 -1.895200
A 2.795315 0.188804 -4.450152
A 3.873468 2.409702 -2.546607
A -4.236472 4.072693 -1.370294
A -0.916861 3.316541 -2.116222
A -1.901337 -1.048141 -4.155152
A 3.707980 -2.861380 1.492051
A 3.420034 4.818284 4.054844
A -2.389024 2.566985 -2.312833
A 1.776699 -0.067516 -4.150056
A -2.721386 -4.321421 -0.413501
A 0.389277 -2.165365 -0.881938
A 4.867105 2.583468 -2.216968
A 0.718298 1.024337 4.395521
A 3.096803 2.192776 1.043206
A 1.861122 2.814034 -3.733259
A -0.195564 -4.947717 3.615121
A -3.739368 -2.362180 0.936747
A -2.257374 -0.338385 1.136018
A 1.658444 4.293910 -2.838747
A 0.723318 1.138472 2.546620
A -3.890482 -3.526296 3.341998
A -4.660121 2.937299 -3.596537
A 2.546130 4.000442 1.834109
A -0.513125 2.726223 -1.382903
A -2.543015 -0.301658 4.767702
A -0.139053 4.126332 4.058963
A 3.031576 2.300670 4.016737
A -1.395640 2.969063 3.604826
A 4.048805 -2.090720 -3.391147
A 1.680968 -2.871224 -3.723310
A 3.283906 3.276698 -2.173758
A 0.145342 -4.669634 1.898618
A 0.583036 -3.537276 3.636998
A 0.469227 -4.523945 -2.793411
A -3.467002 0.872759 -2.861547
A 3.432549 3.458563 4.363652
A 2.846449 3.194860 -4.006713
A -0.759447 3.528057 1.236058
A -1.591760 -2.497636 1.860645
A 1.359084 -0.649656 -0.298939
A -1.862288 4.001856 -3.125311
A -4.234618 1.351426 -3.602783
A -3.399785 -4.321952 -1.343783
A -4.048224 2.018720 3.510714
A 3.939343 1.516298 -3.208365
A -1.241549 4.878801 -4.595267
A -0.193164 4.531792 1.442814
A -2.918655 3.947362 3.008925
A -4.926203 -2.444329 4.820439
A 1.356908 4.627571 -3.924769
A -3.943015 -1.444435 4.670855
A 4.324546 4.679921 1.395967
A -3.129344 -1.303200 3.329234
A -3.675609 -3.943305 -2.911954
A 3.985998 -3.991692 3.060029
A 1.264687 -1.838268 -3.538056
A 1.097035 3.606863 -3.420152
A -1.348591 2.051519 -0.658035
A -4.397065 -0.942111 -1.848039
A -2.755071 -1.732621 -1.241855
A -0.339736 4.811243 -2.900891
A 1.437072 -2.307388 -0.584999
A -0.126296 0.416185 0.998793
A 0.277187 0.430178 -4.640258
A 2.049517 1.766957 -2.304852
A -0.080929 2.120608 0.635840
A 1.862744 -2.021363 -4.474751
A 3.234947 2.293201 -3.456659
A -4.418236 -0.602535 -4.841477
A 1.976171 4.556655 4.271236
A 2.505101 -4.187301 -2.836422
A -0.065904 -4.267150 -1.299967
A 3.714122 -4.816886 -3.829395
A -3.173703 -2.014308 -3.006492
A 1.859066 3.601521 3.580101
A -0.279572 3.864044 -1.524672
A 1.470680 -2.051027 2.638918
A -4.918173 -1.512947 -1.076639
A -1.876192 1.238227 4.099284
A -2.437874 3.045653 0.414558
A 2.440498 -0.787211 1.640421
A -1.293557 -1.551389 -2.400589
A -4.147135 2.418579 2.445427
A -1.517725 2.172560 -3.988141
A 0.429473 -0.848506 1.942030
A 1.772511 -1.558554 -2.696704
A 1.105781 4.761626 2.392957
A 4.132617 -4.426212 -0.652234
A 1.348895 0.633955 -4.849990
A -4.548633 -3.414520 4.983150
A 2.937884 3.891325 -4.819133
A 4.118307 -0.941183 1.245702
A -1.034751 -4.033721 -4.011169
A 0.327986 2.720725 3.561712
A -4.632116 0.803858 -0.992737
A 1.395352 0.898724 -1.594111
A -2.863584 4.540555 4.057814
A 0.061390 -0.573817 0.792795
A -3.672661 4.785265 0.517805
A -2.582744 1.868362 0.672930
A -1.074273 4.550511 0.847730
A 4.473073 -4.210782 -2.258451
A 4.024665 -0.987025 4.874501
A -0.072336 -3.332874 2.269013
A 1.480681 4.303418 0.501171
A -4.127975 -3.106367 -2.482248
A -4.359734 1.196939 -4.682646
A -2.350037 -4.202283 3.769558
A -0.333494 -1.203193 2.566181
A 2.781989 2.798095 4.946684
A -1.535596 -3.293910 -1.132004
A 1.412591 0.939076 3.418086
A 3.827606 1.191672 2.690211
A 2.007159 -0.004143 -1.715512
A -2.952119 -1.450276 -3.785168
A -2.258239 4.656006 -0.500994
A 0.912372 -0.447945 -4.928101
A 1.057966 3.954963 4.234533
A 1.517684 -3.206061 -1.892387
A -3.155268 1.173327 0.044257
A 0.642164 -0.577667 3.085330
A 3.288079 -3.907052 -3.552825
A -1.418624 -3.958512 0.942524
A 3.974758 -0.479836 -0.987716
A -0.014038 -0.677459 -4.429794
A -3.214599 4.760656 -1.032677
A -0.702814 1.325030 1.189237
A 0.372296 -4.737127 -0.449062
A 3.674802 -0.406255 4.064113
A -2.008538 -2.908832 0.171180
A -0.309711 -3.211608 -3.795762
A -0.461149 -2.304697 1.890734
A -3.934952 3.919062 2.424837
A 2.398879 -0.098267 2.387712
A 2.180555 -3.804099 3.586361
A 1.546494 -4.628398 -3.128025
A 0.615881 -1.710314 3.154492
A 3.072125 -3.286151 -4.415223
A 3.683337 0.064814 -4.985790
B -1.725570 -0.030370 1.885576
B -4.015194 4.615196 1.886642
B 2.628025 3.160029 3.848171
B 0.999899 2.734236 -3.430110
B -4.412763 4.976681 0.085226
B -4.988766 -3.963377 2.044935
B 4.675920 -1.964218 -2.819359
B -4.497818 -2.620986 -4.335622
B 1.300178 -2.992944 1.151620
B 3.508866 3.763148 3.071342
B -3.777561 -1.824123 2.833632
B -2.902992 -3.111972 -4.309194
B -0.800639 0.733057 0.583670
B -4.646385 1.810248 1.834141
B -2.313373 -0.808953 4.112760
B 3.260349 2.319240 -1.940209
B 2.089319 0.705740 -0.138464
B -3.734681 -0.298997 -0.541757
B 3.050346 4.945949 1.174785
B -2.108065 -3.230529 -3.095723